39332
Lattice='69.3 0.0 0.0 0.0 69.3 0.0 0.0 0.0 69.3' Properties=species:S:1:pos:R:3 Timestep:=T pbc=F F F 1229=T Atoms.=T
O 10.4423 23.5643 50.4134
C 11.3451 23.4306 51.43
C 10.9823 22.6806 52.5236
C 12.0089 22.3398 53.4588
C 13.3168 22.8688 53.3658
O 14.3121 22.4092 54.1438
C 13.5834 23.7962 52.3309
C 12.6096 23.9813 51.3359
H 9.66461 23.052 50.6519
H 9.92911 22.2737 52.619
H 11.8675 21.5445 54.214
H 15.0719 22.9354 53.896
H 14.5662 24.3238 52.2734
H 12.845 24.6615 50.5159
O 51.363 14.0127 56.3366
C 50.8961 14.6153 55.2105
C 51.2583 15.9084 54.8693
C 52.2787 16.7779 55.636
C 50.7689 16.4894 53.6558
C 50.0951 15.767 52.7429
C 49.9237 14.38 53.0305
C 49.3349 13.3414 52.152
C 49.3902 12.206 52.8493
N 49.8929 12.4204 54.1231
C 50.2713 13.797 54.2914
H 51.9774 14.5193 56.8627
H 53.2843 16.8293 55.1139
H 52.0109 17.8774 55.7303
H 52.3847 16.3666 56.6573
H 50.9729 17.5821 53.4509
H 49.7417 16.2747 51.8072
H 49.0556 13.4153 51.0712
H 49.039 11.2514 52.4719
H 49.7058 11.7941 54.9482
O 13.999 68.1544 68.9276
C 13.0935 68.2867 67.9246
O 12.1242 67.5886 67.8351
C 13.456 0.161382 67.0374
C 14.634 0.934177 67.3143
C 14.9316 2.06156 66.514
C 13.9913 2.40076 65.5235
C 12.9596 1.53621 65.1884
C 12.6376 0.418135 65.9335
H 13.5697 67.6068 0.308241
H 15.3883 0.748358 68.092
H 15.8059 2.75304 66.6934
H 14.147 3.39058 64.9566
H 12.3192 1.76803 64.3507
H 11.7728 69.0714 65.7522
O 10.2451 47.0922 6.54949
C 9.22523 46.1943 6.52752
O 8.812 45.6924 7.53847
C 8.56808 45.8793 5.22901
C 8.75961 46.6479 4.02752
C 7.90837 46.3455 2.92935
C 7.08946 45.2523 2.89855
C 7.08228 44.4532 4.04491
C 6.147 43.2245 4.15352
C 7.85141 44.669 5.19701
H 10.3343 47.4008 7.45812
H 9.44547 47.5142 3.98308
H 7.8955 47.0266 1.99397
H 6.41429 45.0492 2.07259
H 6.498 42.6111 4.99775
H 5.06778 43.493 4.23448
H 6.28813 42.5685 3.26323
H 7.84377 43.9995 6.06458
O 3.62197 1.18366 0.61728
C 3.24519 1.47352 1.8835
O 4.02549 1.48925 2.79694
C 1.75465 1.70355 2.01779
C 1.34246 2.74788 1.1883
C 0.0627931 3.20162 1.33521
C 68.4547 2.56947 2.1506
C 68.8518 1.51246 3.01394
C 0.924966 0.961039 2.93037
C 1.28571 69.2741 3.90083
C 0.294563 68.667 4.64135
C 68.2325 69.0078 4.43129
C 67.1903 68.0629 5.0839
C 67.8393 0.865371 3.76988
H 4.60649 1.35821 0.633173
H 2.05408 3.26358 0.510793
H 69.0473 4.06555 0.727983
H 67.4008 2.8844 2.0897
H 2.33638 69.0542 4.07151
H 0.621757 67.8902 5.36774
H 66.7829 67.3327 4.31844
H 66.369 68.6132 5.56696
H 67.7068 67.4558 5.85767
H 66.7396 1.17428 3.6882
C 64.1103 61.1905 68.1063
C 64.3298 61.2517 0.182971
C 65.64 61.545 0.620218
C 66.668 61.6427 69.016
C 66.4199 61.5655 67.6373
C 65.126 61.3569 67.185
O 64.7514 61.2732 65.8663
C 65.4609 61.467 64.7385
C 64.7372 62.0153 63.6757
C 65.4045 62.0306 62.3998
C 66.7012 61.5548 62.2857
C 67.41 61.1191 63.3898
C 66.7685 60.9943 64.6072
H 63.1627 61.0551 67.681
H 63.4687 61.1469 0.905838
H 65.8553 61.5981 1.68045
H 67.6966 61.8135 0.0386075
H 67.2538 61.8124 66.9479
H 63.6808 62.2689 63.8085
H 64.9145 62.4667 61.5232
H 67.2295 61.6066 61.3655
H 68.4171 60.7686 63.3035
H 67.2106 60.4627 65.4276
O 58.6773 60.3555 33.0708
C 57.3509 60.4845 32.79
O 56.5046 60.7306 33.6111
C 56.794 60.4459 31.4277
C 57.3684 60.3522 30.2429
O 56.5536 60.287 29.1815
C 55.2672 60.4026 29.7388
C 55.2691 60.5372 31.1314
C 54.071 60.8355 31.842
C 52.9012 60.9884 31.0855
C 52.9256 60.7388 29.7369
C 54.0934 60.4157 29.0077
H 58.8057 60.7256 33.9904
H 58.4443 60.2937 30.0655
H 54.1451 61.0074 32.8929
H 51.9615 61.3847 31.4408
H 52.05 60.8161 29.1148
H 54.0195 60.1736 27.9174
O 6.52319 0.387501 67.2322
C 6.6352 1.29012 68.2384
N 6.68748 0.84653 0.143897
C 6.75539 1.70493 1.13028
C 6.67952 3.09234 0.987547
C 6.6527 3.58928 68.9495
C 6.69005 2.59589 67.892
C 6.55501 5.06543 68.7066
O 6.02101 5.26189 67.422
C 5.72221 5.65502 0.595946
O 5.44226 7.07836 0.339911
C 6.60881 5.39911 1.81399
C 6.44831 3.94314 2.24062
H 6.19559 68.8801 67.7513
H 6.79158 1.29497 2.16423
H 6.7046 2.8658 66.8264
H 7.56875 5.45693 68.5752
H 5.06919 5.16172 67.4756
H 4.70236 5.20956 0.627061
H 5.2625 7.1833 68.7066
H 6.29656 6.00875 2.68437
H 7.65555 5.60324 1.47061
H 5.40397 3.81646 2.68941
H 7.12066 3.6388 3.07697
O 39.8171 59.2329 66.556
C 40.6285 58.8471 67.5481
C 40.1177 58.4838 68.7732
C 40.8999 58.2353 0.609627
C 42.2878 58.2754 0.591091
C 42.8092 58.7532 68.6601
C 42.0107 59.0383 67.5174
O 42.4008 59.326 62.4975
C 41.2906 59.7039 63.1779
C 40.377 60.583 62.6198
C 39.2789 60.9541 63.3822
C 39.1188 60.4249 64.6632
C 40.0829 59.6134 65.2677
C 41.1971 59.2185 64.4871
H 38.9819 58.4556 68.8359
H 40.3802 58.0297 1.56336
H 42.9565 57.9866 1.49736
H 43.9155 58.8484 68.6571
H 42.4896 59.5344 66.6736
H 42.3573 59.7153 61.6198
H 40.5973 60.9005 61.5566
H 38.6055 61.6991 62.9384
H 38.2384 60.6994 65.312
H 41.954 58.594 64.9298
C 25.4274 23.8209 53.6949
C 25.753 24.2528 54.9655
C 25.0709 25.348 55.521
C 24.0844 25.9632 54.7501
C 23.0313 26.96 55.3004
C 23.8745 25.6201 53.3871
C 24.4725 24.4656 52.8683
C 22.5837 28.8162 50.6084
C 23.9156 28.8984 51.0623
C 24.1961 28.8325 52.4427
C 23.1442 28.6054 53.3517
C 23.4162 28.4032 54.8614
C 21.8549 28.4405 52.8653
C 21.5744 28.581 51.5325
H 25.8584 22.882 53.2784
H 26.4714 23.6949 55.5754
H 25.3148 25.5745 56.5652
H 22.8932 26.8391 56.4075
H 22.0741 26.7199 54.7991
H 23.0851 26.0661 52.7498
H 24.3309 24.1406 51.786
H 22.375 28.9328 49.5276
H 24.731 29.0451 50.3617
H 25.2213 28.9387 52.7719
H 24.495 28.5944 55.0773
H 22.8011 29.0972 55.4819
H 21.032 28.2539 53.5264
H 20.5134 28.562 51.1677
O 66.1627 64.782 22.1308
C 66.052 65.1895 20.8435
C 65.4842 66.4668 20.5867
C 65.2614 66.9592 19.3216
C 65.7461 66.171 18.2114
C 65.9675 66.7716 16.8292
C 66.2392 64.8944 18.4675
C 66.3375 64.3646 19.7743
O 68.5999 67.9447 16.2199
C 68.3655 68.8139 15.1866
O 69.209 69.2643 14.4632
C 66.9783 69.2044 14.8374
C 66.8651 0.711115 13.6703
C 65.6701 1.25512 13.3215
C 64.5332 1.01125 14.0774
C 64.5315 0.164522 15.1358
C 65.7911 68.9494 15.5882
C 65.9721 68.3606 16.9802
H 66.0053 65.4907 22.842
H 65.1789 67.0956 21.4268
H 64.7717 67.9561 19.1993
H 65.2135 66.5123 16.0654
H 66.9437 66.4405 16.4276
H 66.6152 64.2796 17.6851
H 66.8298 63.3731 19.923
H 0.232627 67.8741 16.4004
H 67.7917 1.02405 13.1123
H 65.6122 1.94197 12.4653
H 63.5423 1.41674 13.6987
H 63.6051 69.1915 15.6361
H 66.9896 68.6053 17.4361
H 65.0948 68.7257 17.6106
O 15.8112 30.1495 15.0694
C 16.3343 30.0406 16.322
O 17.2472 30.6755 16.7722
C 15.7615 29.0264 17.2659
C 16.4943 28.0214 17.9546
O 17.6284 27.4603 17.4898
C 16.0405 27.6461 19.2464
C 14.7168 27.8687 19.6959
O 14.2459 27.4159 20.8558
C 13.8545 28.4944 18.7794
O 12.503 28.4775 18.9664
C 14.3861 29.1752 17.6586
C 13.448 30.0684 16.8897
O 13.0233 31.1102 17.3057
O 13.0419 29.5779 15.6959
H 16.2937 30.863 14.6243
H 18.0676 26.9437 18.1597
H 16.761 27.1826 19.9231
H 14.8607 26.8206 21.3087
H 12.306 28.2048 19.8621
H 12.4291 30.2568 15.3217
O 12.638 50.2553 32.8424
C 12.0635 50.9125 33.8933
C 10.9548 50.3835 34.5295
C 10.4272 50.8517 35.7526
C 11.0178 51.9217 36.4389
C 12.2212 52.4494 35.8469
C 12.5902 52.1737 34.4758
C 13.3574 53.177 33.7479
C 14.5059 52.4353 33.1652
C 12.4978 53.7389 32.6135
C 11.5418 52.7546 31.8685
C 13.9503 54.2544 34.5576
O 13.8816 55.5192 33.7327
C 13.1557 54.6449 35.9042
C 11.7605 55.2306 35.5197
C 12.9754 53.4602 36.724
C 12.1481 53.7742 38.0235
H 12.3273 49.3812 32.8588
H 10.4925 49.5082 34.0774
H 9.63676 50.2904 36.1795
H 10.6613 52.2389 37.3909
H 15.0098 51.8757 33.9556
H 14.1232 51.8081 32.2737
H 15.1621 53.1736 32.7095
H 11.8543 54.5108 33.0944
H 13.0775 54.282 31.8198
H 12.1178 51.8975 31.4493
H 10.9173 53.3392 31.1259
H 10.9399 52.1648 32.6206
H 15.0441 54.0476 34.8349
H 14.5627 55.6828 33.0941
H 13.7531 55.4252 36.4698
H 11.0551 54.4912 35.1026
H 11.2598 55.7177 36.4591
H 11.8953 56.0722 34.7725
H 13.9851 53.058 36.9524
H 12.7047 54.6253 38.5269
H 11.1142 54.1432 37.7441
H 12.0984 52.862 38.6917
O 50.6754 27.477 14.4903
C 49.8642 28.5543 14.3983
C 48.8661 28.6446 13.3892
C 48.4866 29.9481 12.956
C 47.6424 30.2911 11.6809
C 49.0403 31.1283 13.5021
C 49.7709 31.0111 14.735
C 50.0334 29.6728 15.2618
C 50.4953 29.5522 16.7242
C 50.0775 30.8547 17.5388
C 50.8373 30.7567 18.8779
C 50.5118 31.8847 19.8935
C 50.7212 32.0722 16.7791
O 52.3095 31.8391 16.6524
C 50.077 32.2608 15.4834
C 48.7339 32.8974 15.6029
C 50.9722 33.0692 14.5789
H 50.3408 26.789 13.8922
H 48.5276 27.7532 12.8025
H 48.2124 30.2197 10.7401
H 47.2875 31.3845 11.6155
H 46.7912 29.5993 11.5887
H 48.9729 32.0996 13.0111
H 51.605 29.4485 16.7949
H 50.025 28.625 17.1221
H 48.9695 30.9707 17.6714
H 50.5315 29.79 19.3153
H 51.9363 30.7804 18.7065
H 51.0944 31.8125 20.8557
H 50.6835 32.8861 19.5049
H 49.4384 31.8967 20.1457
H 50.6734 32.9709 17.4393
H 52.8014 32.5334 16.2109
H 48.6685 33.4401 16.521
H 47.966 32.0998 15.6486
H 48.4158 33.5384 14.7117
H 51.8149 32.4869 14.1906
H 50.3639 33.5273 13.7531
H 51.3901 33.8981 15.1683
C 31.2386 5.5385 55.5209
C 30.0576 5.85047 54.8145
C 29.9407 5.40766 53.4722
C 28.7352 5.70035 52.7541
C 28.5496 5.07606 51.5737
C 29.5155 4.17063 50.996
C 29.1505 3.48729 49.8008
C 30.0656 2.46284 49.4047
C 29.4521 1.39255 48.4614
C 31.3641 2.30867 49.9976
C 32.337 1.51177 49.1339
C 31.7819 2.97796 51.1967
C 33.0899 2.94041 51.7825
C 33.3261 3.62107 52.9664
C 32.2883 4.39101 53.62
C 32.3749 4.93938 54.9389
C 30.9989 4.55139 52.9549
C 30.7539 3.8644 51.7219
H 31.356 5.92337 56.5317
H 29.2853 6.48989 55.2024
H 27.9922 6.34861 53.2051
H 27.5151 5.18226 51.1053
H 28.1878 3.62962 49.2155
H 28.3747 1.64621 48.2961
H 29.5592 0.326289 48.7955
H 29.927 1.44687 47.4528
H 32.3452 1.84529 48.0635
H 31.907 0.495284 49.1649
H 33.3197 1.50986 49.6093
H 33.8969 2.28873 51.3436
H 34.3453 3.61825 53.4365
H 33.3085 4.97786 55.5285
C 2.10372 34.366 4.43854
C 2.08135 33.074 3.90399
C 0.837722 32.4771 3.65272
C 68.9584 33.2002 3.61472
C 69.0247 34.5276 4.03983
C 0.910076 35.0965 4.55636
O 0.305432 39.1845 1.04085
C 1.176 38.6498 1.9149
C 0.708314 37.8601 2.97296
C 1.62906 37.3874 3.93356
C 0.959745 36.567 5.04702
C 3.01336 37.7703 3.89811
C 4.0739 37.6168 4.99779
C 3.48475 38.4742 2.78406
C 2.56589 38.853 1.77769
C 2.99843 39.7415 0.5823
H 3.04577 34.8503 4.6929
H 3.04466 32.5033 3.73825
H 0.962598 31.3595 3.43521
H 67.9918 32.8064 3.26235
H 68.1172 35.1037 3.86025
H 68.6994 39.2023 1.43097
H 68.9271 37.7144 3.1861
H 69.2244 36.9558 5.18005
H 1.61557 36.6719 5.93192
H 4.124 36.6025 5.42682
H 3.74356 38.2172 5.93783
H 5.05979 38.0216 4.72083
H 4.55643 38.8547 2.70104
H 2.29849 39.5298 68.9947
H 4.06692 39.5125 0.341759
H 2.83928 40.779 0.889646
C 4.68284 6.69563 65.6789
C 4.37655 5.51738 64.9723
C 3.07525 5.42039 64.4405
C 2.66837 4.357 63.3976
C 2.04987 6.33087 64.7225
C 2.40829 7.47112 65.4896
C 1.37288 8.54603 65.7813
C 3.73207 7.65454 65.9301
O 69.2583 8.02556 66.0733
C 68.254 8.82046 66.207
C 68.3343 10.2161 65.9829
C 67.1989 10.934 66.1838
C 66.0749 10.302 66.7474
C 64.8742 11.2635 66.8734
C 65.972 8.93145 67.108
O 64.8655 8.37001 67.7133
C 67.0721 8.1835 66.7058
H 5.68844 6.85368 66.0381
H 5.1261 4.77095 64.7457
H 3.44992 3.61918 63.3425
H 1.69777 3.86179 63.7213
H 2.40102 4.84396 62.4618
H 1.01704 6.21816 64.2864
H 1.71402 9.10254 66.6915
H 1.25304 9.28227 64.8938
H 4.00793 8.54235 66.5032
H 69.3103 10.6424 65.7167
H 67.2214 12.023 65.9751
H 65.0379 12.1424 66.176
H 63.9443 10.7839 66.5615
H 64.7506 11.5751 67.927
H 64.1194 8.83753 67.464
H 67.0741 7.08909 66.7819
O 38.9795 13.604 42.7988
C 38.9145 13.56 41.4112
O 38.6249 12.5317 40.8592
C 39.4161 14.6153 40.5323
C 39.2558 14.3652 39.1481
C 39.9484 15.085 38.2257
C 40.8264 16.1026 38.6483
C 40.9773 16.4873 39.9638
C 42.0016 17.6384 40.2806
C 40.2477 15.7453 40.9416
C 40.1409 16.2264 42.336
O 38.8114 16.9394 42.4034
C 38.4052 17.446 43.5199
C 37.221 18.188 43.4962
C 36.6318 18.681 44.657
C 37.2585 18.469 45.8903
C 38.4556 17.7601 45.8828
C 39.0654 17.2749 44.775
H 38.6877 12.7452 43.1363
H 38.8029 13.4414 38.8271
H 39.8821 14.7913 37.1431
H 41.423 16.6073 37.8733
H 42.6234 17.3249 41.1805
H 42.7006 17.7887 39.4387
H 41.505 18.5875 40.5352
H 40.9532 16.8546 42.6634
H 39.9644 15.3287 43.0325
H 36.7603 18.299 42.4868
H 35.6963 19.2607 44.5461
H 36.8221 18.839 46.8547
H 38.9489 17.5903 46.8859
H 40.0637 16.8354 44.787
O 3.75035 39.7728 33.7814
C 3.284 38.5193 34.0298
C 2.27393 38.0773 33.1426
C 1.70277 36.8151 33.297
C 1.97436 36.1469 34.4976
C 3.06619 36.4983 35.3619
C 3.6226 37.8118 35.1321
C 4.53992 38.4967 36.1733
C 3.67487 35.3852 36.2201
C 4.60513 34.5141 35.3341
O 5.33564 35.4537 34.6358
C 5.55332 33.7056 36.2473
C 2.48215 34.4862 36.8711
C 1.19193 34.9087 36.355
C 0.0373983 34.0952 36.9852
C 1.19949 34.8864 34.8673
O 69.0539 34.8057 34.2973
H 3.39746 40.0489 32.9455
H 1.89522 38.6949 32.3193
H 0.984448 36.3823 32.5383
H 4.76933 37.7998 36.9888
H 5.53105 38.8427 35.841
H 4.04231 39.4093 36.5587
H 4.31224 35.7033 37.0521
H 4.08092 33.854 34.6424
H 4.81675 35.9747 34.0206
H 5.09321 32.6965 36.5135
H 6.56057 33.4961 35.7465
H 5.83333 34.193 37.2497
H 2.60878 34.6563 37.9786
H 2.66901 33.4184 36.6043
H 0.993243 35.9905 36.71
H 0.25217 32.9871 37.0049
H 68.3255 34.2813 36.5139
H 69.2379 34.4104 38.1164
H 1.63902 33.8836 34.4282
H 68.687 33.8908 34.2468
C 48.5861 6.48319 43.5716
C 49.9112 6.57394 43.1609
C 50.8332 7.00218 44.1195
C 50.3604 7.31379 45.4274
C 51.2886 7.90523 46.4485
C 49.0289 7.21256 45.8606
C 48.1077 6.80598 44.8632
O 48.6244 11.6972 46.7701
C 48.2484 11.3193 48.0334
O 47.4816 11.9478 48.7235
C 48.8714 10.1315 48.663
C 48.7532 10.0271 50.0716
C 49.3149 8.88582 50.7061
C 50.098 7.95884 49.9941
O 50.7268 6.91748 50.5862
C 50.2015 8.26225 48.5788
O 50.9756 7.49474 47.8996
N 49.6516 9.28603 48.033
H 47.884 6.22394 42.7927
H 50.174 6.31342 42.1209
H 51.9283 7.04733 43.8612
H 51.2428 9.02978 46.4625
H 52.3108 7.56117 46.2765
H 48.8004 7.52847 46.8638
H 47.0278 6.69837 45.0101
H 49.5139 11.4817 46.5853
H 48.1454 10.7738 50.6629
H 49.1168 8.77258 51.8244
H 50.3958 6.94332 51.5233
C 30.4391 18.919 64.0386
C 30.8221 19.162 65.3832
C 30.665 20.4662 65.9478
C 31.0596 21.0251 67.2241
C 30.7035 22.2844 67.6852
C 29.9468 23.2125 66.95
N 29.4117 24.5342 67.0004
C 28.8967 24.842 65.7187
C 28.9381 23.6836 64.8788
C 28.7193 23.5053 63.43
C 28.9691 22.2513 62.8223
C 29.7091 21.2437 63.634
C 30.0164 19.9379 63.1743
C 30.0712 21.4513 65.0129
C 29.6273 22.6338 65.7079
C 28.0512 24.7316 62.9003
C 28.4815 24.7739 61.4824
C 26.5611 24.5022 62.9835
C 28.4072 25.9314 63.5781
C 28.2821 27.27 62.8502
C 28.5891 26.0009 64.9953
C 28.2864 27.1894 65.9092
C 27.0128 26.8152 66.6644
H 30.462 17.9311 63.5941
H 31.101 18.282 65.9945
H 31.6473 20.4428 67.9619
H 31.0146 22.582 68.7295
H 29.5649 25.1905 67.809
H 28.6169 22.0562 61.8125
H 29.8336 19.7805 62.1047
H 28.1484 25.6594 61.0125
H 28.1579 23.903 60.9255
H 29.5694 24.783 61.471
H 26.3781 23.4372 62.803
H 25.9906 25.1584 62.2789
H 26.2643 24.8049 63.989
H 28.7337 28.0889 63.4454
H 27.2571 27.5182 62.5992
H 28.8544 27.2553 61.8206
H 28.1102 28.1486 65.3461
H 29.0986 27.2659 66.6798
H 26.831 27.4133 67.5876
H 27.2052 25.7513 67.0787
H 26.1692 26.6605 65.9363
C 7.05443 16.5676 35.3877
C 8.35356 16.1678 35.6985
C 8.63189 15.2625 36.776
C 7.62978 14.965 37.7461
C 6.3717 15.5576 37.4129
C 6.01864 16.2333 36.2552
C 5.36486 15.3733 38.5785
C 6.14805 16.0728 39.7403
C 6.5644 17.4986 39.22
C 5.4806 18.3717 38.5824
C 4.95734 16.26 40.7401
C 5.05134 17.3622 41.7336
C 7.34094 15.2001 40.2444
C 6.87331 14.3246 41.451
C 8.42981 16.1212 40.8328
C 9.50971 15.5082 41.6386
C 7.83155 14.2064 39.0879
C 9.31236 13.6922 39.081
C 7.04312 12.8505 39.1036
C 7.35105 11.9989 37.9234
H 6.91474 17.1566 34.4982
H 9.19884 16.3406 35.0286
H 9.64222 14.7868 36.8554
H 5.0084 16.5906 36.0622
H 4.48382 15.8623 38.2433
H 5.03322 14.3346 38.8288
H 7.44724 17.4124 38.5598
H 6.96798 18.0305 40.0874
H 4.74199 18.6482 39.4031
H 5.9397 19.3714 38.1758
H 4.95226 17.8657 37.7683
H 4.84104 15.319 41.3445
H 3.97209 16.3434 40.1195
H 4.494 18.2536 41.3611
H 6.06036 17.577 42.1267
H 4.31258 17.1677 42.5539
H 6.18544 13.5621 41.0661
H 6.50535 14.891 42.3273
H 7.7446 13.7016 41.9108
H 7.96813 16.8963 41.4727
H 8.86774 16.7254 40.0018
H 9.23325 15.5418 42.7213
H 9.72663 14.5085 41.1986
H 10.4531 16.044 41.4381
H 9.99479 14.5579 39.1173
H 9.50107 13.0058 38.1677
H 9.43256 12.9995 39.9813
H 5.9556 12.9923 39.1629
H 7.4706 12.3178 40.0479
H 6.62225 11.2142 37.7612
H 8.21995 11.4206 38.1503
H 7.47267 12.5975 36.9742
O 27.3585 20.1892 5.29687
C 26.9676 20.7473 4.07912
O 25.997 21.4599 4.02419
C 27.8619 20.5917 2.93893
C 29.0982 19.8391 2.9932
C 29.7416 19.3598 1.81435
C 31.0031 18.507 1.84152
C 29.2739 19.7627 0.577491
N 29.4171 19.2587 68.5652
C 28.4973 19.9268 67.738
C 28.0879 19.8994 66.4151
C 27.0634 20.7981 66.0147
C 26.8947 20.9229 64.4804
C 26.4291 21.8515 66.772
S 25.554 23.1976 65.9821
C 26.6818 21.8788 68.1692
C 25.9502 22.3797 0.0334374
C 26.2936 22.0924 1.34078
C 27.3794 21.2001 1.6999
C 28.1964 20.7303 0.618528
C 27.6927 20.8739 68.5216
H 26.8254 20.5831 6.01864
H 29.4921 19.6365 3.99681
H 31.87 18.9593 1.26353
H 31.2941 18.255 2.87594
H 30.7236 17.5304 1.37505
H 30.1622 18.519 68.2557
H 28.6693 19.3275 65.6704
H 26.7805 21.9485 64.1783
H 27.7915 20.525 63.9562
H 26.0133 20.2876 64.1569
H 25.8178 24.1273 67.0027
H 25.04 22.9718 69.1128
H 25.6208 22.487 2.11746
C 2.07736 0.54454 54.2392
C 2.26377 1.66905 53.4834
C 1.55753 2.7153 54.2221
C 1.34505 4.14233 54.1538
C 0.505326 4.6709 55.1235
C 69.2147 3.89501 56.1327
C 0.191452 2.54524 56.3069
C 1.00789 1.8957 55.3641
N 1.31763 0.662953 55.2854
O 68.3421 4.52205 56.9518
C 67.5361 3.96627 57.8946
O 67.3912 2.81839 58.1243
C 66.5158 4.92447 58.5014
C 65.3299 5.17975 57.8004
C 64.3009 6.03491 58.2599
C 64.5851 6.80142 59.367
O 63.7103 7.51286 60.1194
C 64.4754 8.17539 61.05
C 65.785 7.87542 60.9805
O 66.688 8.41269 61.8682
C 65.8783 6.74503 60.0014
C 66.8472 5.75924 59.6055
H 2.48741 68.8764 53.8916
H 2.79341 1.80163 52.581
H 1.94419 4.73199 53.3817
H 0.362319 5.77476 55.2719
H 68.9338 1.99545 57.0709
H 1.59506 0.203858 57.5514
H 65.1303 4.74187 56.8301
H 63.3846 6.06837 57.7533
H 64.0111 8.92597 61.7032
H 67.5285 7.94671 61.625
H 67.7578 5.5155 60.1458
O 64.3162 66.4933 65.3416
C 64.4184 65.7975 66.7772
C 63.5401 64.5197 66.7855
C 65.7777 65.6127 67.3121
C 66.5006 64.8599 66.2303
C 66.4701 66.9459 67.561
C 66.9028 67.6563 66.4008
C 67.805 68.7186 66.4598
C 68.4392 68.8924 67.7017
C 67.8856 68.3574 68.8901
C 68.3553 69.0664 0.869827
C 66.8071 67.4391 68.8617
C 66.1149 66.9998 0.82463
C 65.2428 68.1255 1.37157
C 65.3707 65.7358 0.64972
C 63.814 65.895 0.694683
C 65.7233 64.8899 1.89699
C 65.9405 64.8328 68.5607
C 67.4137 64.3234 68.6932
H 63.9594 65.9034 64.6742
H 63.9247 66.5871 67.3798
H 63.2633 64.1582 67.8193
H 62.5838 64.641 66.2995
H 64.0675 63.7017 66.3146
H 65.9946 65.1128 65.2672
H 66.3247 63.7601 66.3071
H 67.6034 65.1677 66.2535
H 66.5972 67.3312 65.3946
H 68.1756 69.109 65.5339
H 0.0145127 0.241359 67.7354
H 67.7926 0.666701 1.11768
H 68.4214 68.3232 1.70407
H 0.0811491 0.21836 0.764893
H 66.8798 66.7786 1.61299
H 64.2809 68.2186 0.873498
H 65.746 69.1216 1.27342
H 64.9815 68.0326 2.48036
H 63.4051 64.8924 0.851363
H 63.4087 66.4026 69.1459
H 63.5307 66.4221 1.60211
H 65.3873 63.8336 1.87941
H 65.1261 65.2659 2.78916
H 66.7955 64.9183 2.20422
H 65.303 63.9735 68.5282
H 67.6622 64.1419 0.45149
H 68.1358 65.068 68.2848
H 67.6711 63.5084 68.043
O 21.5424 18.5989 16.5968
C 21.0439 18.3217 15.4271
C 21.9428 18.386 14.3544
C 21.5355 18.1347 13.0427
C 20.242 17.7456 12.8461
C 19.3036 17.6728 13.9192
C 19.7134 17.8432 15.2267
O 19.114 19.4896 21.0507
C 19.8667 20.5993 20.293
C 19.9911 21.8259 21.1222
C 18.6725 22.607 21.0213
C 20.9811 22.2326 21.9246
C 22.1943 21.4415 21.9196
C 23.5088 21.5416 22.3639
O 24.3474 20.6742 21.805
C 23.555 19.93 20.8669
C 23.8947 18.9519 19.9059
C 22.9423 18.5383 18.9284
C 21.6471 19.0751 18.9398
C 20.6974 18.6522 17.8218
C 21.1945 19.9616 19.9755
C 22.2349 20.3406 20.8571
H 22.9717 18.6386 14.6204
H 22.2275 18.315 12.1447
H 19.8829 17.6349 11.8148
H 18.2293 17.4511 13.7169
H 18.9934 17.6791 16.0021
H 18.1741 19.6665 21.1094
H 19.2478 20.7118 19.3537
H 17.9235 22.0993 20.283
H 18.2722 22.8517 22.014
H 18.8395 23.6647 20.6506
H 20.9947 23.1353 22.5614
H 23.8786 22.2255 23.1637
H 24.7627 18.3558 19.9594
H 23.1732 17.854 18.1372
H 20.3534 17.6341 18.0132
H 19.8892 19.3881 17.7127
O 7.96385 48.6573 15.3067
C 8.27198 47.6789 14.4208
O 9.35064 47.1466 14.4573
C 7.2968 47.5321 13.2697
C 6.21414 48.4735 13.3628
C 5.09138 48.3156 12.5173
C 4.98469 47.2381 11.6115
C 6.14363 46.4078 11.4403
C 7.29658 46.5153 12.2908
C 8.3909 45.4863 12.0701
C 9.23419 45.7201 10.8072
C 7.63547 44.0879 11.9613
C 8.7137 43.0263 11.7776
O 9.23855 42.9148 10.3771
C 9.8709 43.1746 12.8135
C 6.51505 44.0076 10.815
C 6.9632 43.191 9.57281
C 5.9657 43.152 8.49428
C 5.22957 43.5416 11.4999
C 5.15896 41.9781 11.5892
C 6.16576 45.459 10.2611
H 8.63301 48.7052 16.0383
H 6.33356 49.3495 13.9737
H 4.33961 49.0645 12.6129
H 4.06316 47.0962 11.0441
H 9.04366 45.4797 12.9222
H 8.89992 45.1654 9.92853
H 9.00325 46.7645 10.5548
H 10.2997 45.4179 10.8867
H 7.15581 43.8582 12.9272
H 8.26254 42.0101 11.9816
H 10.0896 42.5393 10.3746
H 10.5957 43.9035 12.4569
H 10.4532 42.2283 13.0161
H 9.43612 43.534 13.7791
H 7.26052 42.143 9.84621
H 7.85062 43.6315 9.06085
H 4.93379 42.8153 8.83144
H 5.99935 44.2066 7.93144
H 6.23785 42.3458 7.78784
H 5.08203 44.0016 12.5011
H 4.44474 43.8533 10.8025
H 5.41501 41.3743 10.6784
H 4.15829 41.6454 11.9069
H 5.79013 41.7365 12.4793
H 5.23823 45.4508 9.61964
H 7.04213 45.769 9.69086
O 38.6723 6.39229 48.3287
C 39.8772 6.96149 47.9931
O 40.1461 7.51307 46.9627
C 40.94 6.86481 49.0142
C 42.0496 7.7526 48.8737
C 42.9261 8.09647 49.9134
C 42.7857 7.33186 51.0818
N 43.6098 7.21908 52.2643
C 42.9122 6.36667 53.0811
C 42.9723 6.16061 54.595
C 41.8705 5.66436 52.5127
C 41.7511 6.36698 51.1658
C 40.7142 6.1088 50.2104
C 39.5789 5.31107 50.7844
C 38.4831 6.38923 51.5184
O 39.102 7.15103 52.5057
C 37.421 5.52318 52.1511
O 37.2199 4.43853 51.6855
O 36.7773 6.00584 53.2409
C 39.9659 4.32923 51.8503
C 41.0211 4.44772 52.6571
H 38.0684 6.68046 47.6356
H 42.1534 8.37127 47.9274
H 43.7176 8.87038 49.7938
H 44.233 7.94565 52.6615
H 42.2431 5.40858 54.9127
H 42.6543 7.11223 55.0628
H 43.9935 5.86128 54.9847
H 38.9853 4.83838 49.9574
H 38.0802 7.08312 50.6651
H 39.6528 6.53071 52.987
H 36.2034 5.30164 53.65
H 39.3396 3.39324 52.0409
H 41.2195 3.72728 53.4393
O 57.9593 5.33154 64.7472
C 58.1304 5.59103 66.0652
O 57.7811 4.86262 66.9525
C 58.9314 6.85138 66.2773
C 58.7998 7.88263 65.2956
C 59.4136 9.09025 65.4311
C 60.3804 9.30734 66.4529
C 60.9796 10.569 66.6632
C 61.78 10.7235 67.7476
C 62.0535 9.71578 68.7004
C 61.4578 8.46444 68.5344
C 60.5855 8.24759 67.4864
C 59.8105 7.01906 67.4087
C 59.9827 6.04115 68.499
O 61.1741 5.18996 68.1334
C 62.3518 5.41249 68.6373
C 62.5682 5.91311 0.663781
C 63.8617 6.39096 0.965523
C 64.8688 6.29598 69.2934
C 64.7224 5.49873 68.1404
C 63.4168 5.14807 67.7894
H 57.5925 4.40259 64.7158
H 58.1891 7.67096 64.4184
H 59.2778 9.81854 64.6775
H 60.7551 11.3876 66.011
H 62.1979 11.6854 67.8626
H 62.7407 9.9309 0.307632
H 61.6712 7.749 69.315
H 59.1192 5.37634 68.6217
H 60.2171 6.53327 0.162292
H 61.7065 6.02371 1.35394
H 64.0488 6.86456 1.96352
H 65.8668 6.77565 0.137783
H 65.5515 5.42034 67.4695
H 63.2222 4.70994 66.7898
O 47.9773 0.764027 38.2889
C 47.6957 68.8185 38.1692
C 48.3912 67.9257 39.0015
C 48.0747 66.6033 39.1638
C 46.9365 66.1196 38.5036
C 46.1644 66.9537 37.6152
C 46.58 68.2543 37.3903
O 45.4739 4.67019 43.2167
C 45.6154 5.3403 42.031
O 45.4149 6.52217 41.9692
C 46.1827 4.65894 40.8153
C 47.2819 3.7811 41.0621
O 47.9476 3.86446 42.2392
C 47.5721 2.91407 40.024
C 46.9609 2.9765 38.7742
C 47.2002 1.99477 37.6497
C 45.9734 4.00424 38.475
C 45.6154 4.76147 39.5244
O 44.5942 5.63085 39.2722
H 49.2278 68.3174 39.5301
H 48.6916 65.9947 39.8709
H 46.6264 65.0887 38.6303
H 45.2366 66.5334 37.0975
H 46.0311 68.9129 36.6436
H 45.0811 5.23735 43.8583
H 48.7977 3.39883 42.2163
H 48.3679 2.12364 40.1745
H 46.1969 1.61104 37.2613
H 47.8593 2.34258 36.8548
H 45.4807 4.11187 37.4994
H 44.2462 5.93345 40.075
O 24.1149 1.84318 23.7314
C 24.6623 0.622803 23.4623
O 25.408 0.10139 24.2419
C 24.1465 69.1804 22.27
C 24.1329 0.851099 21.1707
C 23.8224 0.452792 19.8975
C 23.3303 68.4468 19.7548
C 22.9154 67.8968 18.3762
C 23.2945 67.4643 20.7512
C 23.8418 67.8031 22.0352
C 23.9943 66.7425 23.1262
O 20.5047 61.4546 20.3341
C 21.5062 62.3574 20.008
O 22.0629 62.5321 18.9627
C 21.8938 63.1068 21.2269
C 21.136 62.8061 22.4198
C 21.5858 63.2487 23.6778
C 22.6983 64.0952 23.7132
C 23.4153 64.4364 22.5472
C 24.6217 65.3772 22.7295
C 23.0379 63.9709 21.2719
H 24.7069 2.3382 24.3036
H 24.4353 1.90488 21.4069
H 23.9425 1.1265 19.0257
H 23.851 67.4354 17.9038
H 22.5972 68.7027 17.6918
H 22.1092 67.0911 18.4445
H 22.8902 66.4586 20.6051
H 24.5378 67.2566 23.877
H 23.0078 66.5626 23.5271
H 20.1775 61.0813 19.4975
H 20.212 62.3121 22.3336
H 21.0691 62.9861 24.6376
H 23.157 64.4455 24.6798
H 25.2364 64.9466 23.5797
H 25.2152 65.3888 21.8204
H 23.6199 64.1081 20.3308
O 7.4299 66.5527 6.83692
C 7.20609 65.2955 6.68547
C 7.56639 64.3493 7.65563
C 7.30654 63.0042 7.41904
C 6.5072 62.6781 6.28747
C 6.15218 63.6057 5.32332
C 6.50443 64.9481 5.53
O 8.23662 1.17986 6.59022
C 6.94946 0.760803 6.61655
C 6.14748 0.959107 5.52668
C 4.83606 0.401044 5.61974
C 4.41056 68.6617 6.50964
C 5.29354 68.4892 7.60323
C 6.54824 69.2004 7.68744
C 7.46746 68.4974 8.6371
C 7.90139 67.1846 8.2044
C 6.85129 68.4722 10.0083
O 7.87582 67.9722 11.0031
C 5.4834 67.7516 10.0482
C 4.95331 67.3874 8.62008
H 8.14398 64.6835 8.52213
H 7.65223 62.1775 8.02751
H 6.20654 61.6007 6.09099
H 5.53146 63.3161 4.48381
H 6.35922 65.7065 4.69694
H 8.35072 1.83408 5.84184
H 6.4226 1.58353 4.61235
H 4.17732 0.746486 4.85363
H 3.47194 68.1594 6.44462
H 8.35047 69.1727 8.65784
H 9.05148 67.005 8.23304
H 7.4946 66.4591 8.98523
H 6.71768 0.218924 10.2543
H 8.40192 68.71 11.3048
H 4.68309 68.2933 10.678
H 5.66409 66.847 10.6056
H 5.3763 66.3843 8.26551
H 3.85514 67.2342 8.65266
O 20.5608 45.2379 17.8264
C 20.1274 44.9947 16.518
O 18.9731 44.9095 16.2166
C 21.1084 44.9517 15.4267
C 22.2619 45.7889 15.5569
C 22.563 46.8108 16.6631
C 23.1337 45.9751 14.4408
C 22.7323 45.4823 13.1943
C 21.6422 44.5903 13.06
C 20.8707 44.2291 14.1445
C 19.7961 43.2432 13.8955
O 20.421 41.9872 13.7302
C 18.8728 43.7304 12.6945
C 17.8635 42.7464 12.0149
C 16.9095 42.1961 13.0568
C 18.1781 44.9857 13.2865
C 17.1746 45.7151 12.4209
C 19.7311 44.2635 11.4832
C 21.2456 43.9867 11.6922
C 23.6205 45.6101 11.9395
C 24.7011 46.7663 12.1306
C 25.3558 46.5197 13.4096
C 26.6079 47.3915 13.5603
C 27.8494 46.6727 12.8507
C 24.4641 46.7877 14.5913
H 19.815 45.733 18.3075
H 21.7492 46.8586 17.4006
H 23.5083 46.4693 17.1784
H 22.6463 47.8037 16.1629
H 19.1362 43.0394 14.8027
H 19.9866 41.3866 13.0724
H 18.4698 41.9276 11.5497
H 17.3031 43.1966 11.1798
H 15.8468 42.5305 12.8173
H 16.9089 41.1065 13.1598
H 17.0742 42.6209 14.0505
H 17.6794 44.7344 14.2731
H 18.9849 45.6582 13.5388
H 17.4622 45.7748 11.3439
H 17.0426 46.713 12.7702
H 16.2064 45.1762 12.5076
H 19.6252 45.3796 11.3663
H 19.4118 43.8093 10.5271
H 21.795 44.4582 10.8366
H 21.4608 42.9026 11.723
H 22.9392 45.8695 11.0513
H 24.07 44.6227 11.809
H 24.2478 47.7895 12.037
H 25.4653 46.7223 11.3004
H 25.6207 45.4114 13.4864
H 26.414 48.3984 13.1497
H 26.8908 47.4297 14.6551
H 27.7324 45.5708 12.9673
H 28.7068 46.9252 13.507
H 27.9988 47.0342 11.8599
H 25.0486 46.6049 15.5086
H 24.2066 47.8476 14.6254
O 9.15377 68.3377 68.8068
C 9.84364 68.7171 0.731899
C 9.70173 0.924291 0.992853
C 9.72006 2.04066 0.125216
C 9.71595 3.42645 0.478626
C 9.59834 4.59204 68.9561
C 9.55899 5.85959 0.252992
C 9.1337 7.0485 68.6666
C 9.69598 6.14105 1.6668
C 9.74588 5.02303 2.51736
C 9.99389 5.03112 3.96084
C 9.93197 3.94934 4.84812
C 9.80686 2.67561 4.29491
N 9.93691 1.29045 4.68308
C 9.94644 0.471268 3.58198
C 9.72412 1.17246 2.40408
C 9.71897 2.66211 2.897
C 9.76426 3.70597 1.91524
C 10.1496 68.3109 3.31974
C 9.49217 67.5981 4.56898
C 9.50938 67.8208 1.92664
C 7.94174 67.7561 2.02048
C 10.3636 6.3881 4.49819
C 10.9956 7.30738 3.40061
C 10.0236 7.47918 2.30431
C 8.63816 8.11406 2.72729
H 8.37149 68.8786 68.7976
H 10.8531 68.5267 0.483294
H 9.62685 1.82489 68.3992
H 9.48049 4.45935 67.8587
H 9.91756 7.81306 68.7216
H 9.02416 6.75579 67.5947
H 8.22161 7.49369 69.0954
H 10.1035 4.00778 5.86646
H 10.2322 1.03653 5.68677
H 11.2388 68.0416 3.39073
H 9.13886 66.5701 4.27929
H 8.51569 68.1293 4.87579
H 10.1398 67.435 5.5005
H 9.83717 66.8165 1.72809
H 7.51615 68.7651 2.12723
H 7.67474 66.9897 2.74013
H 7.55667 67.3156 1.14538
H 9.59115 6.87938 5.06215
H 11.094 6.15061 5.30479
H 11.3416 8.29683 3.83043
H 11.9233 6.83806 3.04155
H 10.4862 8.16353 1.52163
H 8.1701 7.5816 3.56358
H 7.96518 8.11162 1.88452
H 8.85832 9.14557 3.03146
O 58.8963 48.886 26.8642
C 57.7755 49.5847 27.2057
C 57.4954 49.6544 28.5458
C 56.4896 50.576 28.974
C 55.8412 51.5207 28.1478
C 56.0818 51.3889 26.7967
C 57.0282 50.4472 26.3245
C 57.3452 50.744 24.8872
O 56.1588 50.8277 23.9441
C 55.9919 52.0437 23.0944
C 55.5618 53.1991 24.0372
C 55.0497 52.0347 21.9394
C 53.7661 51.4087 22.3841
C 55.5979 51.2174 20.7717
C 54.9822 50.0855 20.1631
C 55.2383 49.6809 18.8105
C 56.1883 50.4177 18.1444
C 56.9285 51.5015 18.6693
C 56.6008 51.8973 19.9636
C 57.2435 53.1475 20.5914
O 57.968 53.8126 19.5866
C 56.1348 54.1276 21.0154
C 54.7556 53.3496 21.2922
H 59.0502 48.8352 25.8669
H 58.0663 49.0135 29.2573
H 56.2296 50.6197 30.059
H 55.1526 52.2549 28.5761
H 55.626 52.0354 26.0598
H 57.6907 51.7855 24.8827
H 58.0067 49.9699 24.4186
H 57.0822 52.1491 22.8388
H 54.6482 52.9472 24.6471
H 55.1649 54.0484 23.4665
H 56.3963 53.5671 24.6001
H 53.0546 51.3066 21.4975
H 54.0036 50.4372 22.7737
H 53.2056 52.0259 23.1744
H 54.1489 49.5205 20.6368
H 54.6765 48.8707 18.2695
H 56.3656 50.1817 17.102
H 57.7231 52.0276 18.0805
H 57.971 52.831 21.3619
H 58.3121 54.6705 19.8925
H 55.9029 54.946 20.2669
H 56.4906 54.6488 21.8676
H 54.2383 53.2376 20.3402
H 54.0038 53.899 21.9438
C 64.2208 1.93344 60.1035