37918
Lattice='150.0 0.0 0.0 0.0 150.0 0.0 0.0 0.0 150.0' Properties=species:S:1:pos:R:3 Timestep:=T pbc=F F F 1229=T Atoms.=T
C 3.64744 3.50878 2.49111
C 5.01201 3.46001 2.71226
C 5.78455 4.55321 2.4621
C 5.21749 5.70096 1.97197
C 3.87512 5.76435 1.7167
C 3.08553 4.68243 1.99504
C 2.87797 2.2656 2.79167
O 1.70099 2.19389 2.63772
C 1.58865 4.79584 1.74404
H 5.47324 2.54629 3.08682
H 6.85962 4.51171 2.64158
H 5.84543 6.56957 1.7716
H 3.44762 6.67119 1.29809
H 3.37801 1.34955 3.16467
H 1.26959 4.02255 1.02667
H 1.32538 5.78942 1.34944
H 1.03664 4.60479 2.68174
C 144.129 6.26927 4.19618
C 143.909 7.20744 5.19712
C 144.644 7.1195 6.36607
C 145.603 6.11695 6.54367
C 145.82 5.18545 5.54356
C 145.079 5.27302 4.38969
C 146.387 6.07912 7.82189
O 146.757 5.05499 8.29638
O 143.005 8.18038 5.04347
O 146.763 4.25487 5.68089
O 143.434 6.33911 3.05944
C 144.397 8.13817 7.47158
H 145.253 4.54752 3.5921
H 146.621 6.99695 8.39681
H 142.615 8.09968 4.16482
H 146.748 3.66447 4.92225
H 143.665 5.63376 2.44245
H 143.471 8.69921 7.26712
H 144.317 7.63011 8.44618
H 145.235 8.85291 7.51886
C 1.92851 8.3781 5.21232
C 1.85849 9.17951 6.35645
C 1.82705 10.5708 6.22459
C 1.91146 11.153 4.96174
C 1.88997 10.3565 3.81504
C 1.92554 8.96989 3.95169
C 2.03273 6.86839 5.35889
O 1.03166 6.2361 5.36233
C 3.35965 6.19549 5.54627
C 1.8118 8.47948 7.68369
O 2.37849 8.91933 8.62984
C 4.53821 7.13118 5.32839
C 1.98977 12.6687 4.82226
C 1.95441 8.07318 2.72008
C 1.68811 11.4297 7.47389
C 1.8618 10.9805 2.42566
H 3.43062 5.32639 4.86909
H 3.40856 5.75747 6.55853
H 1.29711 7.50644 7.81592
H 5.48911 6.58684 5.45202
H 4.51949 7.95857 6.05631
H 4.51919 7.55646 4.31278
H 2.52613 12.9431 3.90138
H 0.973663 13.0924 4.77972
H 2.52386 13.1043 5.68004
H 2.68352 8.46116 1.99199
H 0.96174 8.05739 2.24256
H 2.20722 7.04789 3.02313
H 1.09055 10.8975 8.23124
H 2.68364 11.6184 7.90772
H 1.20198 12.3887 7.23824
H 2.88655 11.2278 2.10373
H 1.42544 10.2845 1.6934
H 1.26045 11.9024 2.43196
C 11.5265 13.3161 21.361
C 10.1091 13.2364 21.6076
C 11.6037 9.8901 24.3452
C 12.5389 12.4793 21.9688
C 9.69702 12.2713 22.5009
C 12.6411 10.5112 23.6757
N 10.4267 10.4039 24.0388
C 12.0287 11.5151 22.8733
C 10.5913 11.4153 23.137
C 11.9682 14.2983 20.4497
C 10.9792 15.1441 19.8383
C 9.62263 14.9025 20.2172
N 9.25995 14.0314 21.0212
C 13.3716 14.4563 20.1405
C 13.7591 15.4516 19.2286
C 12.8057 16.2586 18.6484
C 11.4544 16.1153 18.9402
C 14.3116 13.5985 20.7771
C 13.9038 12.651 21.6551
C 14.1085 10.1526 23.8131
C 10.4716 17.0457 18.2519
H 11.727 9.0677 25.0513
H 8.62741 12.1824 22.7142
H 9.51472 10.0858 24.4337
H 8.84982 15.537 19.7627
H 14.8096 15.5906 18.9831
H 13.1228 17.0324 17.9456
H 15.3714 13.711 20.5555
H 14.6485 12.0152 22.1256
H 14.2317 9.32032 24.5261
H 14.6759 11.0262 24.1753
H 14.5166 9.85478 22.8329
H 9.74924 16.4536 17.6774
H 9.89722 17.6095 19.0064
H 11.0089 17.7198 17.5672
N 144.92 18.9901 6.07392
C 144.379 17.8222 6.06596
N 143.535 17.3843 6.92382
C 143.179 18.1318 7.87683
C 143.679 19.4041 8.00811
C 144.565 19.7704 7.0367
C 142.204 17.5906 8.8536
O 141.964 18.0937 9.91507
O 143.394 20.2718 9.00946
C 145.222 21.4303 15.0879
C 144.524 22.5081 14.5615
C 144.135 22.5155 13.2358
C 144.454 21.4252 12.428
C 145.168 20.3401 12.9531
C 145.539 20.3405 14.2861
C 144.02 21.4494 10.9992
O 143.635 22.4804 10.556
C 144.155 20.2573 10.2185
O 145.585 21.4425 16.3676
O 146.191 19.2932 14.7996
H 144.673 17.1433 5.24549
H 145.004 20.7764 7.07278
H 141.679 16.634 8.66305
H 144.271 23.3621 15.192
H 143.581 23.3614 12.8269
H 145.431 19.4962 12.3161
H 145.207 20.0875 9.91092
H 143.79 19.3673 10.7689
H 145.295 22.2444 16.8219
H 146.309 18.5917 14.1509
C 9.38006 64.1851 106.585
C 9.43749 63.6646 105.244
C 5.06178 62.8214 106.267
C 8.21937 64.1676 107.373
C 8.27391 63.1182 104.711
C 5.73869 63.4251 107.292
N 5.82093 62.6102 105.195
C 7.08635 63.6155 106.804
C 7.07116 63.0657 105.44
C 10.6039 64.7491 107.119
C 11.7544 64.725 106.236
C 11.5785 64.1586 104.947
N 10.5059 63.6828 104.526
C 10.7547 65.2976 108.383
C 11.9603 65.7965 108.768
C 13.0627 65.7746 107.926
C 12.9875 65.2492 106.665
C 8.29095 62.5711 103.334
O 7.31836 62.0871 102.847
O 12.1303 66.3301 109.978
C 5.20326 63.8169 108.654
H 4.01052 62.5358 106.304
H 8.1947 64.5648 108.384
H 5.53938 62.1681 104.289
H 12.4537 64.1424 104.282
H 9.91197 65.3314 109.07
H 14.0096 66.1862 108.283
H 13.8601 65.237 106.014
H 9.19548 62.5804 102.698
H 11.3028 66.2884 110.467
H 5.32696 64.9032 108.804
H 5.78366 63.3076 109.443
H 4.13732 63.5457 108.739
C 121.632 137.476 34.3131
C 122.54 136.31 34.4509
C 119.889 136.634 38.7052
C 120.755 135.425 38.7921
C 120.73 137.813 35.3148
C 122.457 135.524 35.5873
C 119.881 137.419 37.566
C 121.576 135.084 37.746
C 120.696 137.077 36.4998
C 121.589 135.873 36.6115
C 121.727 138.231 33.1283
C 122.601 137.896 32.1344
C 123.437 136.793 32.2839
C 123.46 136.035 33.4153
C 119.059 136.957 39.7942
C 119.063 136.143 40.8962
C 119.881 134.987 40.9727
C 120.715 134.624 39.9501
C 119.828 139.023 35.1302
C 119.588 139.312 33.6706
C 120.88 139.488 32.9384
O 124.394 135.092 33.488
C 118.149 136.503 42.0628
C 119.851 134.105 42.2172
H 123.081 134.643 35.697
H 119.241 138.294 37.5245
H 122.213 134.205 37.8155
H 122.663 138.5 31.2281
H 124.138 136.557 31.4784
H 118.414 137.832 39.7562
H 121.331 133.73 40.0263
H 120.288 139.893 35.6278
H 118.868 138.855 35.6429
H 119.009 138.494 33.216
H 118.968 140.216 33.5633
H 120.71 139.673 31.8641
H 121.433 140.366 33.312
H 124.498 134.751 34.3821
H 118.743 136.668 42.9753
H 117.569 137.411 41.8385
H 117.459 135.673 42.2826
H 120.541 133.254 42.1074
H 118.833 133.718 42.3868
H 120.14 134.689 43.1051
C 56.793 96.6374 102.06
C 56.1589 95.7414 101.074
C 61.126 94.7777 100.978
C 60.468 93.8987 99.9522
C 58.1744 96.6459 102.223
C 56.9715 94.8973 100.318
C 60.3547 95.6839 101.727
C 59.1101 93.959 99.7444
C 58.9809 95.7515 101.508
C 58.3493 94.8465 100.502
C 55.9361 97.4648 102.821
C 54.5768 97.4371 102.658
C 53.9967 96.5833 101.711
C 54.7602 95.7567 100.935
C 62.4871 94.5883 101.122
N 63.1299 93.7522 100.459
C 62.6045 92.9922 99.5738
C 61.3145 93.0065 99.2529
C 58.7884 97.5964 103.234
C 57.8992 98.791 103.478
C 56.5253 98.3703 103.898
C 56.3322 94.0824 99.2299
O 56.12 92.9237 99.3489
C 56.0289 94.8354 97.9436
O 63.0621 95.371 102.032
O 63.3532 92.1126 98.911
H 60.8414 96.3036 102.475
H 58.6401 93.3019 99.0165
H 53.9384 98.0724 103.275
H 52.91 96.5739 101.603
H 54.272 95.0949 100.222
H 60.9022 92.337 98.4964
H 58.9723 97.0487 104.173
H 59.776 97.9303 102.878
H 58.3467 99.438 104.248
H 57.8395 99.4038 102.566
H 55.8702 99.2432 104.059
H 56.5515 97.8294 104.858
H 56.3177 95.8946 98.0466
H 54.9555 94.7655 97.707
H 56.5811 94.3828 97.1049
H 64.0026 95.1287 102.047
H 62.8577 91.6147 98.2418
C 10.7096 144.165 3.24499
C 10.6012 145.29 4.18812
C 15.3841 143.873 4.42018
C 15.1877 144.91 5.34999
C 11.9842 143.658 2.96743
C 11.6816 145.716 4.92713
C 14.355 143.442 3.63476
C 13.9843 145.522 5.54009
C 13.0818 144.029 3.75376
C 12.9003 145.1 4.75976
C 9.50193 143.676 2.67161
C 8.30022 144.351 2.85125
C 8.22977 145.491 3.67713
C 9.35315 145.945 4.33713
C 9.48116 142.335 2.00048
O 8.87418 142.15 0.996198
C 6.87861 146.163 3.93578
O 6.48935 147.005 3.20228
C 6.11743 145.673 5.1242
C 5.03386 146.66 5.53732
C 7.01743 143.843 2.20593
C 16.3621 145.35 6.22228
C 9.24839 147.161 5.24244
C 12.2382 142.758 1.76921
H 16.3672 143.411 4.32833
H 11.584 146.524 5.64493
H 14.5313 142.632 2.92959
H 13.8691 146.312 6.27886
H 10.0036 141.459 2.43191
H 6.80919 145.483 5.96367
H 5.67354 144.685 4.90981
H 5.47726 147.64 5.7712
H 4.31282 146.802 4.71646
H 4.49348 146.296 6.42557
H 7.10962 143.886 1.10817
H 6.15092 144.452 2.50663
H 6.84425 142.788 2.47696
H 16.2637 146.414 6.48966
H 17.3163 145.179 5.70177
H 16.372 144.767 7.15645
H 9.39043 146.862 6.2949
H 10.0318 147.892 4.97954
H 8.26528 147.645 5.13099
H 12.2155 141.699 2.07342
H 11.4831 142.942 0.987159
H 13.2304 142.971 1.338
C 85.6202 103.56 101.871
C 86.879 103.209 102.519
C 83.5941 99.6787 103.895
C 84.892 99.3559 104.536
C 84.4471 102.773 102.044
C 86.9611 102.087 103.319
C 83.4606 100.793 103.084
C 85.9832 100.169 104.326
C 84.5285 101.608 102.869
C 85.8313 101.291 103.504
C 85.5969 104.704 101.069
C 86.779 105.51 100.902
C 87.999 105.134 101.557
C 88.0429 104.029 102.33
C 82.4942 98.8381 104.12
C 82.6211 97.7389 104.921
C 83.8353 97.4121 105.538
C 84.9429 98.1964 105.353
C 84.3763 105.096 100.393
C 84.3848 106.269 99.6128
C 85.5436 107.011 99.4837
C 86.7251 106.656 100.103
C 83.2279 104.266 100.579
C 83.2511 103.173 101.383
S 81.6574 104.6 99.7559
C 86.2351 97.7932 106.047
H 87.9007 101.828 103.8
H 82.4968 101.002 102.628
H 86.9416 99.9479 104.787
H 88.8919 105.745 101.427
H 88.9765 103.757 102.82
H 81.5328 99.0572 103.658
H 81.7556 97.0943 105.085
H 83.8926 96.5235 106.168
H 83.4798 106.603 99.1103
H 85.5256 107.916 98.8693
H 87.6126 107.273 99.9707
H 82.3408 102.589 101.491
H 82.1537 104.676 98.5025
H 86.0906 96.8721 106.635
H 87.0261 97.6239 105.298
H 86.5701 98.6025 106.717
C 143.602 2.20201 5.88663
C 142.334 2.64296 6.39964
C 141.222 2.40819 1.88976
C 143.83 2.04042 4.48846
C 141.266 2.97577 5.54895
C 142.457 2.02661 2.23786
C 140.443 2.94996 3.07346
C 142.681 2.26336 3.6666
C 141.477 2.74722 4.20273
C 144.667 1.93181 6.77899
C 144.513 2.10174 8.1888
C 143.238 2.5117 8.69137
C 142.131 2.75678 7.82506
C 145.952 1.49086 6.29437
C 146.988 1.27814 7.24914
C 146.784 1.45958 8.58263
C 145.564 1.86314 9.13493
C 146.143 1.36607 4.90784
C 145.13 1.6773 4.05473
C 143.096 2.63734 10.1138
C 141.833 2.98966 10.6274
C 140.763 3.17696 9.777
C 140.88 3.06043 8.39023
N 145.367 2.01298 10.4097
C 144.272 2.36244 10.8767
C 140.009 3.61479 6.09171
C 139.673 3.16075 7.4934
C 145.473 1.70496 2.59998
O 146.339 1.01159 2.17256
C 140.238 5.09365 6.08377
C 139.05 1.74377 7.42717
H 140.819 2.32986 0.884442
H 143.175 1.57684 1.55485
H 139.521 2.37814 3.25417
H 140.183 4.01085 2.94285
H 147.975 0.979354 6.89869
H 147.622 1.28639 9.26066
H 147.122 1.09522 4.51573
H 141.696 3.09148 11.7019
H 139.787 3.4112 10.2049
H 144.186 2.46626 11.9666
H 139.173 3.38287 5.416
H 138.941 3.84248 7.94928
H 145.001 2.41148 1.89018
H 139.34 5.63289 6.43236
H 141.088 5.36304 6.73442
H 140.472 5.44903 5.06489
H 138.139 1.75074 6.80928
H 139.766 1.0284 6.99795
H 138.775 1.3995 8.43521
C 26.2375 4.59082 9.25403
C 27.1077 4.3144 10.2844
C 28.3956 3.97046 9.94594
N 28.8083 3.8886 8.75261
C 28.0244 4.13157 7.79816
C 26.7098 4.50189 7.95844
C 29.3355 3.67228 11.0529
O 29.0156 3.74837 12.2064
C 28.4827 4.01088 6.34351
C 33.6915 4.50295 3.91423
C 32.8935 3.42292 4.4442
C 29.6039 6.7146 3.90392
C 33.1369 5.77051 3.54854
C 31.5077 3.60582 4.65024
C 30.858 7.00515 3.52828
C 29.5019 5.30704 4.43025
C 31.7327 5.88312 3.7987
C 30.9783 4.82913 4.33788
C 35.0713 4.26439 3.71577
C 35.5909 2.97372 4.04796
N 34.8124 2.03667 4.52171
C 33.6013 2.21683 4.70628
C 35.8921 5.33648 3.16589
C 37.2555 5.08207 2.98541
C 37.7309 3.83553 3.31827
C 36.9431 2.82294 3.82302
C 35.2921 6.57498 2.80327
C 33.9553 6.76199 2.96585
C 29.0055 5.40467 5.89358
H 25.1998 4.86593 9.45377
H 26.7834 4.36002 11.3251
H 26.0571 4.70382 7.10817
H 30.3827 3.37235 10.8558
H 29.2997 3.2793 6.28396
H 27.6597 3.67955 5.69353
H 28.768 7.40171 3.82175
H 30.8871 2.79812 5.02913
H 31.1808 7.94042 3.08816
H 28.8249 4.69646 3.82427
H 33.0078 1.38195 5.1053
H 37.9171 5.84676 2.58174
H 38.7949 3.63868 3.16784
H 37.4096 1.86591 4.05171
H 35.9095 7.3651 2.38204
H 33.4985 7.69279 2.64779
H 28.2055 6.15074 5.97419
H 29.8266 5.73647 6.53476
C 83.4507 9.44605 43.0069
C 82.9878 8.07134 42.9813
C 84.2335 8.29966 47.3401
C 84.0225 9.99443 44.1589
C 83.0922 7.24705 44.1236
C 84.5048 9.40518 46.6779
N 83.6921 7.30133 46.5865
C 84.0571 9.14326 45.2809
C 83.5804 7.80164 45.2592
C 83.3753 10.2476 41.8204
C 82.9604 9.64596 40.576
C 82.5458 8.28392 40.5781
C 82.5339 7.54996 41.741
C 83.6881 11.6157 41.8448
C 83.6756 12.368 40.6908
C 83.3827 11.7737 39.4659
C 82.9839 10.4527 39.4135
C 84.6825 11.3453 44.1496
C 83.9208 12.2937 43.1733
N 82.7216 5.90988 44.0656
C 81.7268 5.60793 43.0846
C 82.0927 6.08509 41.6729
C 82.2004 7.65647 39.2293
C 81.6316 8.6839 38.2973
C 82.5897 9.81934 38.0831
O 83.9526 13.6707 40.7669
O 83.4968 12.5325 38.3669
C 83.6769 4.90807 44.4145
C 84.9822 4.9914 43.6386
H 84.4172 8.17595 48.4053
H 84.9357 10.3236 47.0739
H 83.3272 6.39188 46.9352
H 85.7281 11.2407 43.8267
H 84.7103 11.7694 45.1635
H 82.953 12.5715 43.6104
H 84.4792 13.2286 43.029
H 81.5149 4.52628 43.0792
H 80.7996 6.13563 43.3756
H 81.2246 5.96523 41.0122
H 82.9014 5.46809 41.2564
H 81.4891 6.82741 39.3536
H 83.1063 7.20023 38.7972
H 81.3842 8.21763 37.3292
H 80.6783 9.06678 38.6936
H 83.4967 9.47191 37.5606
H 82.1308 10.5753 37.4243
H 83.8993 14.0556 39.8826
H 83.4334 12.0283 37.5548
H 83.9261 4.99854 45.4821
H 83.2322 3.9094 44.2698
H 85.5021 5.93832 43.8618
H 84.7919 4.95089 42.5543
H 85.649 4.15475 43.9071
C 34.7813 128.968 132.331
C 35.1606 127.841 133.148
C 30.5184 127.176 132.775
C 33.4092 129.193 131.96
C 34.181 126.932 133.622
C 31.085 128.216 132.131
C 31.5421 126.404 133.582
C 32.5028 128.214 132.458
C 32.867 127.143 133.268
C 35.712 129.908 131.87
C 37.099 129.712 132.22
C 37.472 128.612 133.047
C 36.5359 127.718 133.494
C 35.2828 131.038 131.084
C 36.2794 131.905 130.628
C 37.6074 131.69 130.951
C 38.0366 130.637 131.732
C 33.8864 131.24 130.813
C 32.9466 130.315 131.21
C 31.4465 130.488 131.046
C 30.601 129.202 131.08
C 34.5393 125.754 134.48
C 35.8734 125.97 135.231
C 37.0081 126.597 134.388
C 35.5799 126.937 136.397
C 34.578 124.54 133.608
C 37.6888 125.58 133.53
C 33.45 132.501 130.085
H 29.4767 126.896 132.684
H 31.313 126.43 134.657
H 31.5784 125.349 133.273
H 38.5122 128.493 133.335
H 36.0221 132.763 130.012
H 38.3549 132.393 130.574
H 39.093 130.527 131.967
H 31.0954 131.166 131.838
H 31.2426 131.02 130.107
H 29.5447 129.432 131.253
H 30.6335 128.712 130.098
H 33.7301 125.606 135.212
H 36.2142 125.015 135.648
H 37.7677 127.012 135.068
H 34.8037 126.524 137.061
H 36.4814 127.095 137.01
H 35.2349 127.913 136.021
H 35.0276 123.686 134.143
H 33.5599 124.244 133.304
H 35.1461 124.733 132.686
H 37.9197 124.669 134.107
H 37.0708 125.309 132.662
H 38.6453 125.969 133.145
H 34.0421 133.366 130.425
H 33.5988 132.377 128.999
H 32.3883 132.72 130.278
C 74.1984 128.552 83.5998
N 75.1597 129.185 83.082
C 74.9209 130.257 82.4239
N 73.7507 130.766 82.2396
C 72.7442 130.166 82.7448
C 72.8832 128.987 83.4693
C 74.5628 127.339 84.3419
O 73.7701 126.573 84.826
C 71.342 130.733 82.5749
C 71.6987 128.283 84.0742
N 68.6319 128.412 83.1271
C 65.2097 125.627 85.1297
C 67.4201 128.314 83.4701
C 65.5034 126.85 84.53
C 69.4831 127.466 83.3446
C 66.1501 124.623 85.3555
C 69.7269 125.02 84.3887
C 68.7977 124.181 84.9544
C 66.8309 127.178 84.1157
C 69.1085 126.276 84.0002
C 67.4944 124.838 84.9706
C 67.7538 126.117 84.379
C 66.3761 129.381 83.2978
C 64.9426 128.834 83.1328
C 64.4933 127.952 84.3074
C 70.9356 127.407 82.9958
C 71.482 125.963 82.9423
C 71.2128 124.991 84.1127
H 75.7745 130.797 81.9766
H 75.6284 127.066 84.4866
H 70.691 130.03 82.0282
H 70.8828 130.955 83.5542
H 71.3947 131.674 81.9948
H 70.9964 129.025 84.473
H 71.9932 127.648 84.9138
H 64.181 125.44 85.4423
H 65.8557 123.686 85.8245
H 68.9981 123.182 85.3321
H 66.4167 130.069 84.16
H 66.6474 130.012 82.4337
H 64.8744 128.265 82.1993
H 64.2464 129.675 83.0273
H 63.4971 127.52 84.12
H 64.3965 128.552 85.2264
H 71.0909 127.885 82.0214
H 71.0933 125.491 82.0304
H 72.5648 126.011 82.7873
H 71.7677 125.295 85.0102
H 71.5383 123.969 83.8671
C 107.173 136.271 9.92844
C 108.437 136.774 10.0769
C 108.619 138.016 10.6171
C 107.522 138.746 11.0089
C 106.251 138.245 10.857
C 106.082 137.002 10.3154
C 108.176 141.135 10.6249
C 109.504 141.552 10.6167
C 107.537 146.488 4.34242
C 107.161 141.573 9.75766
C 108.818 146.635 4.72239
C 109.882 142.526 9.71133
C 106.769 145.464 5.13503
C 110.304 145.584 6.57076
C 110.272 144.653 7.58754
C 106.745 143.207 7.69529
C 109.107 145.727 5.83381
C 107.514 142.519 8.8259
C 107.887 145.018 6.08745
C 108.856 142.97 8.85255
C 109.062 143.949 7.80552
C 107.843 144.103 7.10372
C 111.26 143.06 9.40062
C 111.342 144.411 8.62519
O 110.373 141.001 11.4642
O 111.399 146.298 6.34798
C 106.296 144.29 4.26884
C 107.727 140.119 11.6709
C 106.865 147.282 3.24121
H 107.033 135.278 9.4998
H 109.299 136.181 9.76847
H 109.624 138.42 10.7463
H 105.383 138.823 11.1757
H 105.079 136.59 10.1973
H 106.147 141.179 9.81295
H 109.525 147.336 4.28034
H 105.926 145.912 5.67566
H 106.372 142.482 6.96169
H 105.9 143.799 8.07098
H 111.837 143.149 10.3305
H 111.793 142.293 8.8224
H 111.311 145.24 9.34548
H 112.329 144.513 8.15161
H 111.231 141.391 11.2996
H 111.248 146.905 5.61563
H 105.833 143.518 4.89819
H 107.147 143.847 3.73506
H 105.545 144.629 3.54165
H 106.785 140.45 12.1288
H 108.492 140.039 12.455
H 106.556 146.604 2.42565
H 107.55 148.05 2.84381
H 105.947 147.756 3.63199
C 9.79364 125.651 133.158
C 10.046 126.176 131.908
C 14.0649 122.226 124.998
C 10.1604 124.343 133.455
C 14.3806 121.007 125.582
C 13.3946 123.295 125.618
C 10.6609 125.42 130.931
C 14.17 119.628 127.748
C 13.7168 119.575 129.058
N 11.2734 122.222 132.59
C 12.4775 120.785 130.953
C 12.0704 123.932 127.908
C 13.9586 120.781 126.912
C 10.784 123.533 132.532
C 12.8935 123.116 126.892
C 13.0057 120.666 129.639
C 11.8455 121.923 131.353
C 11.0068 124.112 131.267
C 12.1212 123.033 129.147
C 13.2138 121.878 127.477
C 11.6978 123.031 130.472
C 12.7572 121.828 128.818
C 15.0735 119.858 124.929
C 15.7904 119.043 125.902
C 14.8574 118.481 127.055
C 13.8626 118.361 129.964
C 13.853 118.765 131.416
C 12.6308 119.54 131.82
O 13.2799 124.463 124.981
C 10.6407 124.053 127.5
C 10.4096 125.109 126.463
C 16.0227 120.334 123.879
C 9.87616 123.815 134.86
H 9.31055 126.265 133.917
H 9.75819 127.206 131.69
H 14.3777 122.416 123.969
H 10.8729 125.831 129.945
H 11.2479 121.59 133.415
H 12.5189 124.912 128.104
H 14.3009 119.231 124.438
H 16.606 119.626 126.36
H 16.2801 118.192 125.399
H 15.4511 117.897 127.77
H 14.1086 117.792 126.641
H 14.7909 117.819 129.723
H 13.0459 117.651 129.753
H 14.7533 119.359 131.636
H 13.9426 117.866 132.047
H 11.7248 118.919 131.726
H 12.6832 119.831 132.882
H 12.9406 125.099 125.613
H 10.2696 123.078 127.142
H 10.0208 124.268 128.388
H 10.9115 126.052 126.739
H 10.779 124.778 125.477
H 9.33088 125.321 126.354
H 16.5759 119.482 123.44
H 15.4872 120.84 123.056
H 16.7549 121.041 124.312
H 10.491 124.357 135.594
H 10.1115 122.743 134.92
H 8.81785 123.972 135.115
C 10.2755 6.83626 145.805
C 11.1945 5.69926 145.874
C 7.22993 3.46824 146.586
C 8.88669 6.64396 145.899
C 10.6518 4.3883 146.001
C 7.05056 4.75828 146.277
N 8.54912 3.11079 146.605
C 8.4288 5.34213 146.1
C 9.31403 4.24308 146.232
C 10.7974 8.13738 145.629
C 12.1451 8.33891 145.561
C 13.006 7.26028 145.799
C 12.5771 5.92967 145.864
C 7.92293 7.81226 145.778
C 8.58296 9.07598 146.264
C 9.84737 9.32831 145.506
C 11.5463 3.18327 145.932
C 12.8069 3.49762 145.3
C 13.535 4.76115 145.924
C 6.08169 2.5452 146.822
C 4.7308 3.303 147.048
C 4.56003 4.42526 146.033
C 5.72415 5.45843 146.177
C 14.4415 7.6991 145.959
O 15.0507 7.44672 146.946
O 12.7005 9.51852 145.268
C 14.8237 4.98014 145.111
C 15.6137 3.7421 144.829
C 3.23291 5.13008 146.346
C 10.9388 2.07879 145.128
C 4.50441 3.90109 144.593
C 13.872 4.48599 147.403
H 8.89651 2.17617 146.903
H 7.60151 7.92175 144.728
H 7.00989 7.61303 146.358
H 7.8964 9.93111 146.152
H 8.7965 9.00033 147.341
H 10.3321 10.2426 145.888
H 9.63298 9.51961 144.441
H 11.7122 2.81635 146.964
H 12.6533 3.68596 144.224
H 13.4776 2.62533 145.363
H 6.29809 1.88312 147.68
H 5.98673 1.843 145.975
H 4.70827 3.70469 148.07
H 3.89921 2.58813 146.98
H 5.56895 6.06881 147.078
H 5.72382 6.15578 145.328
H 14.9235 8.38732 145.235
H 12.0284 10.1301 144.974
H 15.4801 5.68 145.634
H 14.5705 5.47452 144.161
H 15.8373 3.18838 145.756
H 15.0927 3.07972 144.118
H 16.5825 4.00207 144.366
H 3.07163 5.97863 145.665
H 3.22956 5.50453 147.382
H 2.38937 4.43055 146.239
H 10.1257 1.56922 145.663
H 10.5472 2.46395 144.169
H 11.6898 1.29544 144.912
H 4.28069 4.7197 143.891
H 3.71996 3.13612 144.486
H 5.46893 3.46083 144.3
H 14.418 3.5372 147.508
H 14.4935 5.29477 147.814
H 12.9529 4.43645 148.004
C 38.8729 50.3035 17.308
C 40.1308 50.3529 16.5233
C 39.6212 45.7366 18.5201
C 40.788 45.718 17.7606
C 38.3905 49.1442 17.8979
C 40.8619 49.1607 16.4115
C 38.8391 46.8499 18.5706
C 41.1965 46.8016 17.0607
C 39.1953 48.0103 17.8443
C 40.459 47.9963 17.0801
C 38.0875 51.4803 17.3917
C 38.4629 52.6056 16.7155
C 39.6429 52.63 15.9729
C 40.4749 51.5621 15.9061
N 37.1256 49.1037 18.4867
C 36.8324 50.3239 19.1742
C 36.8041 51.5325 18.1999
C 42.0488 48.9853 15.5034
O 43.1536 49.2345 15.8494
C 41.7773 48.2827 14.1828
O 41.6123 51.8064 15.2441
O 41.5424 44.6179 17.7133
C 36.1284 48.4641 17.6927
C 35.5388 50.3515 19.9927
C 37.6637 53.9054 16.7647
C 32.8195 46.4371 15.7297
C 32.9647 45.0757 15.7497
C 33.8354 44.4844 16.621
C 34.5615 45.273 17.4793
C 34.415 46.6486 17.4645
C 33.5392 47.229 16.5806
C 35.1577 47.5481 18.4547
C 35.5137 44.5774 18.4478
H 39.3258 44.8532 19.0923
H 37.9458 46.8443 19.1913
H 42.129 46.7429 16.5014
H 39.9376 53.5524 15.4681
H 37.6864 50.4933 19.8495
H 36.7327 52.4794 18.7529
H 35.9313 51.484 17.5349
H 42.5919 47.5742 13.9629
H 41.7336 49.0195 13.3646
H 40.8115 47.7521 14.2247
H 42.2943 51.2308 15.5719
H 41.1606 43.9433 18.2826
H 35.5554 49.2394 17.1612
H 36.6387 47.8828 16.9058
H 35.5126 49.4838 20.6728
H 35.4951 51.2626 20.6102
H 34.659 50.3242 19.3337
H 38.0041 54.601 15.9812
H 37.8036 54.3978 17.7402
H 36.5899 53.7061 16.6325
H 32.1173 46.8937 15.0312
H 32.38 44.4579 15.067
H 33.9456 43.4004 16.6359
H 33.4061 48.3102 16.5643
H 35.7132 46.9444 19.1802
H 34.4315 48.1524 19.011
H 36.5478 44.9024 18.254
H 35.4527 43.4846 18.3306
H 35.2583 44.8412 19.4862
C 21.4252 140.702 8.46511
C 23.1535 135.222 12.9329
C 20.3704 139.895 7.87395
C 22.0843 134.389 12.3286
C 22.238 140.179 9.47977
C 23.3847 136.505 12.4754
C 19.0932 137.816 7.68688
C 20.221 134.026 10.6838
C 18.8856 136.518 8.10849
C 19.4318 134.674 9.57616
C 22.8612 138.308 10.9287
C 20.1479 138.597 8.33405
C 21.2983 134.935 11.3212
C 19.6488 135.967 9.19714
C 22.0282 138.882 9.94532
C 22.5996 137.043 11.4581
C 20.9269 138.067 9.39753
C 21.4806 136.231 10.8965
C 20.6927 136.784 9.86537
C 21.6012 142.026 7.99326
C 20.783 142.525 7.00187
C 19.7731 141.777 6.42051
C 19.553 140.46 6.83823
C 18.4966 139.68 6.25337
C 18.2834 138.413 6.66313
C 23.9381 134.695 13.9863
C 23.6853 133.423 14.4194
C 22.6831 132.628 13.8406
C 21.9043 133.084 12.8192
C 17.8757 135.704 7.37607
O 17.0266 135.103 7.9545
O 24.8915 135.429 14.5484
C 24.0658 139.089 11.4182
H 23.0169 140.805 9.89755
H 24.1834 137.082 12.9312
H 20.6911 133.103 10.3034
H 19.5277 133.677 11.4663
H 18.6723 134.083 9.0806
H 22.3796 142.655 8.41691
H 20.9355 143.553 6.66057
H 19.1512 142.217 5.64271
H 17.8629 140.118 5.48237
H 17.4676 137.846 6.21695
H 24.2732 132.998 15.2371
H 22.5267 131.617 14.2243
H 21.1414 132.428 12.4055
H 17.8392 135.655 6.26841
H 25.3415 134.94 15.2513
H 24.8899 138.413 11.6982
H 23.78 139.691 12.2983
H 24.4504 139.758 10.6313
C 28.5272 34.683 6.39896
C 29.5429 35.5526 6.94986
C 27.0701 40.5403 12.735
C 27.1612 34.7753 6.82512
S 25.4576 39.9142 12.4939
C 28.0346 40.0022 11.9634
C 29.2311 36.4608 8.01997
C 25.3369 37.9407 10.4899
C 25.5315 36.0701 8.55754
C 28.2631 38.2145 10.0928
C 26.1431 38.8041 11.1995
C 27.5121 38.9787 11.0553
C 26.8283 35.6481 7.83352
C 25.9911 37.1627 9.54348
C 27.8547 36.4311 8.39106
C 27.3795 37.3256 9.40391
C 30.1062 37.3295 8.74326
C 29.6309 38.1703 9.74349
C 29.0044 33.7856 5.42964
C 30.3043 33.8283 4.96759
C 31.2263 34.7437 5.46083
C 30.8514 35.6062 6.46815
C 31.7737 36.7095 6.97328
C 31.5676 37.0993 8.42159
C 26.0374 34.062 6.11783
O 25.3423 33.2847 6.68479
O 24.0099 37.8438 10.6569
C 24.9716 34.8963 9.38947
C 29.4905 40.4488 12.0656
C 32.3629 38.3341 8.70172
C 24.4612 36.6224 7.59317
C 28.1324 32.6998 4.81523
H 27.2285 41.3194 13.4778
H 30.3309 38.7946 10.2865
H 30.6222 33.1348 4.18877
H 32.2353 34.7795 5.05069
H 32.8189 36.4061 6.80567
H 31.6302 37.592 6.32994
H 31.9209 36.2771 9.061
H 25.7807 34.2834 5.06392
H 23.7775 38.4371 11.3677
H 25.7628 34.4983 10.0413
H 24.1467 35.2769 10.0061
H 24.6074 34.093 8.73537
H 30.1202 39.5968 12.3638
H 29.591 41.2488 12.8149
H 29.8347 40.8243 11.09
H 32.3801 38.5615 9.78073
H 33.4115 38.2023 8.38007
H 31.9444 39.2001 8.15885
H 23.5943 36.9807 8.16694
H 24.8793 37.462 7.02123
H 24.132 35.8357 6.90103
H 28.7498 31.9682 4.2688
H 27.4189 33.1409 4.10142
H 27.5638 32.1792 5.60315
C 112.493 83.68 77.3037
C 113.245 84.8344 77.4091
C 114.608 84.747 77.4977
C 115.227 83.5172 77.4754
C 114.475 82.3686 77.3727
C 113.107 82.4398 77.2838
O 116.554 83.4016 77.5421
C 110.981 83.7652 77.2606
C 111.763 85.4518 74.3094
C 117.097 86.1649 70.21
C 111.823 86.7981 73.7532
C 116.377 87.3331 70.3179
C 112.704 84.4297 74.0177
C 116.729 84.9806 70.8893
C 112.896 87.1555 72.8603
C 115.21 87.4262 71.1268
C 114.915 83.9367 72.6039
C 113.724 84.7416 73.1647
C 115.62 84.9733 71.7312
C 113.781 86.0618 72.6488
C 114.923 86.1879 71.8027
C 113.207 88.3609 72.1826
C 114.301 88.4929 71.3631
C 110.69 85.1618 75.1734
C 109.763 86.1243 75.4654
C 109.844 87.3832 74.9244
C 110.855 87.7231 74.0792
C 117.488 83.7148 70.714
O 118.49 83.6937 70.0728
C 115.807 83.5156 73.7848
C 116.827 88.5596 69.5385
C 110.461 83.8024 75.7866
H 112.757 85.8075 77.4321
H 115.198 85.6605 77.5885
H 114.971 81.3963 77.3708
H 112.514 81.5289 77.2143
H 116.955 84.2719 77.6386
H 110.637 84.6585 77.7954
H 110.557 82.8858 77.7633
H 117.977 86.1368 69.5687
H 112.638 83.436 74.4511
H 114.588 83.0681 72.023
H 112.554 89.2223 72.3117
H 114.477 89.4493 70.8724
H 108.932 85.8869 76.1298
H 109.083 88.1238 75.1723
H 110.891 88.7293 73.6629
H 117.152 82.7569 71.1566
H 116.709 83.002 73.4245
H 116.11 84.3998 74.3629
H 115.26 82.8324 74.4498
H 116.971 89.4093 70.2262
H 116.046 88.8493 68.8151
H 117.766 88.3558 69.0004
H 110.934 83.0095 75.1982
H 109.382 83.5902 75.7921
C 135.758 133.031 144.839
C 136.728 132.548 145.852
N 138.739 136.474 143.542
C 139.645 136.086 144.414
C 136.013 134.176 144.1
C 137.904 133.27 146.07
C 137.623 135.9 143.452
C 139.458 135.042 145.307
C 137.238 134.814 144.248
C 138.221 134.351 145.254
C 134.579 132.288 144.618
C 134.33 131.136 145.309
C 135.263 130.709 146.27
C 136.435 131.367 146.544
C 135.001 134.673 143.07
C 133.607 134.188 143.325
C 133.591 132.716 143.522
C 140.975 136.744 144.498
O 141.701 136.508 145.405
C 141.241 137.753 143.543
C 133.007 134.892 144.493
C 134.977 129.402 147.005
C 138.855 132.849 147.177
C 143.703 138.941 144.623
C 143.645 138.409 143.346
C 144.695 138.641 142.454
C 145.756 139.414 142.852
C 145.789 139.952 144.117
C 144.766 139.7 144.992
O 142.641 137.794 142.879
C 144.568 138.063 141.055
C 146.912 139.712 141.895
H 136.938 136.281 142.688
H 140.244 134.746 146.002
H 133.432 130.551 145.11
H 137.123 130.955 147.276
H 135.34 134.355 142.068
H 135.019 135.776 143.04
H 132.994 134.425 142.433
H 132.578 132.356 143.774
H 133.858 132.196 142.584
H 140.575 137.641 142.667
H 141.122 138.765 143.966
H 131.963 134.561 144.66
H 133.583 134.696 145.417
H 132.982 135.986 144.326
H 135.554 128.592 146.539
H 133.908 129.148 146.948
H 135.293 129.474 148.057
H 138.295 132.408 148.017
H 139.572 132.105 146.791
H 139.411 133.72 147.559
H 142.906 138.744 145.337
H 146.63 140.57 144.427
H 144.809 140.119 146.001
H 143.536 138.198 140.685
H 145.278 138.535 140.358
H 144.743 136.973 141.09
H 147.261 138.777 141.431
H 146.571 140.383 141.091
H 147.743 140.192 142.432
C 88.211 129.59 78.1096
C 89.4113 130.365 78.0072
C 90.3281 127.955 82.2395
C 91.4936 128.79 81.9276
C 88.1261 128.841 79.2815
N 90.3816 130.348 78.831
C 89.2693 127.973 81.3201
C 91.4607 129.607 80.7675
C 89.2388 128.788 80.1544
C 90.3906 129.624 79.863
C 87.2283 129.711 77.0359
C 87.4955 130.724 76.0176
C 88.7025 131.484 75.9748
C 89.6162 131.265 76.9564
C 90.3423 127.155 83.4087
C 91.4493 127.191 84.1938
C 92.5602 127.952 83.8822
C 92.5911 128.723 82.776
C 86.0686 128.976 76.7871
C 85.2194 129.317 75.7708
C 85.4671 130.314 74.8492
C 86.6158 131.008 74.963
C 88.1732 126.976 81.5659
O 88.4091 125.833 81.3453
O 88.9265 132.373 75.0067
O 87.0416 128.232 79.734
O 89.3104 126.395 83.7581
O 85.7137 127.856 77.4487
C 92.6131 130.454 80.4615
C 94.8465 129.65 77.9454
C 95.7289 130.268 77.1039
C 96.3887 131.392 77.5184
C 96.1657 131.903 78.7686
C 95.267 131.3 79.6008
C 94.5961 130.174 79.19
O 93.6508 129.597 79.9312
H 90.553 131.828 76.9408
H 91.4785 126.595 85.1103
H 93.4261 127.924 84.5442
H 93.4934 129.292 82.5595
H 84.2928 128.754 75.6353
H 84.7653 130.516 74.0367
H 86.8598 131.778 74.2311
H 87.1982 127.228 82.0246
H 89.796 132.782 75.1044
H 86.3425 128.271 79.0833
H 89.526 125.789 84.4805
H 84.8831 127.484 77.1243
H 92.3989 131.183 79.6569
H 93.0493 130.924 81.359
H 94.3052 128.76 77.6183
H 95.9025 129.864 76.1062
H 97.0978 131.881 76.8507
H 96.7008 132.794 79.1001
H 95.0927 131.711 80.5965
N 127.431 39.826 135.475
C 127.833 38.6242 135.649
C 129.034 38.3501 136.282
C 129.833 39.3864 136.679
C 129.383 40.684 136.471
C 128.122 40.8233 135.864
C 127.637 42.2455 135.738
O 128.344 43.1719 135.951
C 126.179 42.3795 135.374
O 127.19 37.6052 135.256
C 125.641 43.7726 135.656
C 121.542 39.462 138.357
C 121.046 40.5002 137.551
C 124.816 38.5406 134.935
C 124.268 39.5677 134.12
C 122.572 38.6938 137.887
C 121.528 40.7842 136.297
C 124.231 38.1929 136.156
C 123.182 40.2716 134.541
C 123.15 38.9446 136.622
C 122.591 40.0316 135.807
C 123.161 37.5911 138.774
C 123.752 36.5079 137.94
C 124.791 37.0604 137.013
C 124.334 35.5002 138.848
C 119.893 41.3344 138.1
C 122.619 41.3518 133.626
C 125.969 37.8292 134.336
C 125.597 31.9645 136.765
C 126.508 32.9192 137.087
C 126.112 34.0596 137.748
C 124.78 34.2314 138.082
C 123.837 33.2765 137.772
C 124.268 32.1312 137.105
C 123.256 31.0839 136.772
O 123.567 30.1034 136.176
H 129.355 37.3203 136.426
H 130.802 39.2002 137.148
H 129.977 41.5474 136.774
H 126.031 42.1138 134.314
H 125.591 41.6252 135.927
H 124.56 43.8201 135.444