37918
Lattice='150.0 0.0 0.0 0.0 150.0 0.0 0.0 0.0 150.0' Properties=species:S:1:pos:R:3 Timestep:=T pbc=F F F 1229=T Atoms.=T
C 144.738 5.94945 146.927
C 145.935 6.63944 146.97
C 147.1 5.9996 146.673
C 147.095 4.67187 146.331
C 145.926 3.96437 146.281
C 144.751 4.60118 146.576
C 143.505 6.71912 147.268
O 142.423 6.22641 147.264
C 143.467 3.78726 146.511
H 145.951 7.69487 147.242
H 148.043 6.54677 146.708
H 148.037 4.1738 146.098
H 145.934 2.90898 146.009
H 143.549 7.79195 147.542
H 142.964 3.80693 147.492
H 143.677 2.74627 146.217
H 142.767 4.24918 145.793
C 115.043 136.193 56.8131
C 114.584 137.119 57.7432
C 114.738 138.467 57.4593
C 115.33 138.899 56.267
C 115.797 137.97 55.3529
C 115.638 136.637 55.6396
C 115.46 140.373 56.0254
O 116.367 140.822 55.4039
O 114.01 136.733 58.8886
O 116.378 138.35 54.216
O 114.915 134.89 57.0617
C 114.269 139.484 58.4927
H 115.99 135.897 54.9179
H 114.755 141.109 56.4626
H 113.99 135.768 58.932
H 116.665 137.573 53.727
H 115.26 134.347 56.3425
H 114.064 138.977 59.45
H 115.04 140.256 58.6426
H 113.344 139.973 58.1463
C 145.385 142.392 141.841
C 146.152 143.248 142.64
C 146.205 144.614 142.348
C 145.524 145.113 141.241
C 144.685 144.276 140.498
C 144.647 142.909 140.779
C 145.397 140.899 142.13
O 144.59 140.463 142.879
C 146.45 140.005 141.545
C 146.895 142.632 143.788
O 147.966 143.031 144.11
C 147.3 140.71 140.5
C 145.667 146.581 140.858
C 143.786 141.963 139.951
C 147.007 145.537 143.257
C 143.837 144.842 139.368
H 145.977 139.105 141.115
H 147.092 139.611 142.352
H 146.503 141.755 144.34
H 148.046 140.017 140.076
H 147.841 141.559 140.95
H 146.675 141.089 139.676
H 145.513 146.717 139.778
H 144.921 147.184 141.4
H 146.673 146.949 141.114
H 143.909 142.167 138.876
H 142.727 142.103 140.214
H 144.044 140.916 140.167
H 146.986 145.159 144.291
H 148.061 145.555 142.935
H 146.599 146.559 143.239
H 144.427 144.888 138.438
H 142.952 144.212 139.192
H 143.491 145.858 139.617
C 140.239 144.949 143.081
C 140.791 143.789 142.428
C 137.773 145.132 139.266
C 139.205 145.805 142.541
C 140.278 143.478 141.187
C 137.766 145.959 140.374
N 138.647 144.149 139.377
C 138.743 145.422 141.257
C 139.291 144.245 140.577
C 140.746 145.271 144.358
C 141.774 144.431 144.91
C 142.189 143.333 144.097
N 141.724 143.067 142.979
C 140.243 146.413 145.086
C 140.78 146.688 146.354
C 141.764 145.875 146.876
C 142.258 144.774 146.186
C 139.225 147.214 144.495
C 138.73 146.916 143.27
C 136.871 147.172 140.548
C 143.341 143.932 146.839
H 137.134 145.264 138.392
H 140.659 142.592 140.674
H 138.809 143.413 138.655
H 142.975 142.673 144.492
H 140.419 147.54 146.926
H 142.164 146.108 147.865
H 138.839 148.077 145.036
H 137.951 147.546 142.847
H 136.229 147.297 139.66
H 137.486 148.077 140.683
H 136.235 147.044 141.439
H 142.993 142.891 146.953
H 144.24 143.912 146.199
H 143.604 144.339 147.829
N 137.489 18.1911 19.9486
C 136.656 18.8741 19.245
N 136.074 18.473 18.1778
C 136.322 17.3099 17.7541
C 137.178 16.4629 18.419
C 137.744 16.9996 19.5376
C 135.699 16.8622 16.4866
O 136.161 15.966 15.837
O 137.499 15.2058 18.0407
C 141.637 12.3453 13.9011
C 141.161 11.4341 14.8359
C 140.35 11.8489 15.8761
C 140.022 13.2047 15.9826
C 140.518 14.1251 15.0472
C 141.31 13.6926 14.0015
C 139.143 13.6402 17.0954
O 138.911 12.8632 17.9606
C 138.652 14.9842 17.102
O 142.407 11.9178 12.9048
O 141.751 14.5631 13.087
H 136.433 19.8995 19.5898
H 138.451 16.3889 20.1132
H 134.869 17.4195 16.0136
H 141.417 10.3762 14.755
H 139.969 11.1293 16.6016
H 140.276 15.1845 15.1396
H 139.426 15.7041 17.4223
H 138.262 15.2764 16.1129
H 142.566 10.9655 12.9521
H 141.454 15.4583 13.2809
C 46.8172 53.8278 67.9366
C 48.1366 53.2541 68.0169
C 47.768 55.0788 72.1904
C 46.2095 54.5252 68.9912
C 48.8372 53.4055 69.2092
C 46.6533 55.2859 71.4226
N 48.7176 54.3926 71.5592
C 46.9419 54.6512 70.1564
C 48.2935 54.0921 70.311
C 46.1058 53.6581 66.6856
C 46.8101 52.9243 65.6507
C 48.1114 52.447 65.9531
N 48.6887 52.6152 67.0453
C 44.8332 54.133 66.411
C 44.2737 53.9063 65.192
C 44.9435 53.2056 64.1999
C 46.2016 52.708 64.401
C 50.1966 52.8278 69.3255
O 50.8295 52.9349 70.3281
O 43.0511 54.352 64.9014
C 45.3866 56.0209 71.8103
H 47.8836 55.432 73.2146
H 45.2132 54.9517 68.9133
H 49.6548 54.1097 71.9306
H 48.6396 51.8917 65.1646
H 44.2784 54.687 67.1658
H 44.4511 53.0498 63.2375
H 46.7171 52.1594 63.614
H 50.6865 52.2762 68.5011
H 42.6899 54.8188 65.661
H 44.5194 55.3441 71.7227
H 45.2167 56.8642 71.119
H 45.4654 56.3956 72.8447
C 144.23 39.7439 137.91
C 144.495 38.2996 138.138
C 144.283 40.4988 142.635
C 144.475 39.0348 142.844
C 144.08 40.6362 138.964
C 144.551 37.8215 139.433
C 144.164 41.0274 141.362
C 144.548 38.1818 141.77
C 144.22 40.1754 140.273
C 144.438 38.7031 140.495
C 144.137 40.1847 136.576
C 144.26 39.3138 135.533
C 144.509 37.9653 135.77
C 144.676 37.4534 137.022
C 144.22 41.3459 143.754
C 144.338 40.795 145.003
C 144.521 39.4034 145.2
C 144.592 38.5265 144.152
C 143.818 42.1067 138.679
C 143.136 42.2909 137.348
C 143.938 41.6645 136.253
O 145.046 36.1797 137.103
C 144.267 41.7252 146.209
C 144.648 38.8401 146.613
H 144.699 36.7638 139.632
H 144.032 42.0973 141.234
H 144.699 37.1152 141.923
H 144.185 39.674 134.507
H 144.617 37.2984 134.912
H 144.079 42.418 143.63
H 144.735 37.4614 144.324
H 144.774 42.6557 138.704
H 143.201 42.5422 139.481
H 142.129 41.8468 137.377
H 142.987 43.3631 137.144
H 143.439 41.7762 135.276
H 144.919 42.1571 136.148
H 145.283 35.9168 137.999
H 145.191 41.6483 146.803
H 144.13 42.7691 145.888
H 143.428 41.4359 146.862
H 144.778 37.7476 146.584
H 143.747 39.0808 147.199
H 145.511 39.2922 147.126
C 3.15485 114.023 144.807
C 3.9077 115.029 144.028
C 2.75556 111.278 140.874
C 3.54096 112.293 140.1
C 2.74228 112.832 144.221
C 4.19391 114.779 142.688
C 2.48781 111.467 142.234
C 4.01168 113.432 140.717
C 2.96971 112.611 142.861
C 3.73623 113.621 142.066
C 2.87721 114.329 146.157
C 3.28499 115.51 146.719
C 4.00165 116.446 145.964
C 4.31099 116.221 144.652
C 2.33044 110.178 140.128
N 2.57958 110.05 138.9
C 3.2347 110.895 138.232
C 3.74799 112.021 138.733
C 1.99394 111.814 145.064
C 2.32879 111.964 146.527
C 2.05748 113.357 147.001
C 5.06976 115.746 141.942
O 4.6352 116.53 141.169
C 6.56198 115.627 142.21
O 1.63789 109.284 140.832
O 3.45573 110.697 136.931
H 1.90479 110.725 142.772
H 4.57041 114.174 140.151
H 3.04524 115.729 147.76
H 4.31157 117.381 146.434
H 4.85718 116.977 144.091
H 4.30732 112.724 138.114
H 0.910797 111.937 144.898
H 2.23652 110.794 144.725
H 1.74684 111.242 147.122
H 3.38598 111.71 146.697
H 2.31054 113.475 148.068
H 0.986515 113.603 146.913
H 6.75118 114.836 142.954
H 6.96074 116.586 142.576
H 7.09488 115.388 141.276
H 1.46779 108.652 140.115
H 3.96304 111.421 136.54
C 134.453 14.943 14.0958
C 133.415 15.6454 14.8714
C 134.317 18.5882 10.9469
C 133.371 19.2297 11.7679
C 134.815 15.4581 12.8476
C 132.93 16.8728 14.481
C 134.814 17.3642 11.2861
C 132.915 18.7006 12.9402
C 134.375 16.7284 12.4615
C 133.399 17.4409 13.3194
C 135.064 13.8086 14.6973
C 134.567 13.2912 15.887
C 133.505 13.9127 16.574
C 132.943 15.0707 16.0776
C 136.378 13.2885 14.1901
O 136.596 12.1239 14.1068
C 133.047 13.3697 17.9298
O 132.224 12.5203 17.9648
C 133.693 13.9362 19.1517
C 132.873 13.6475 20.4016
C 135.221 12.0733 16.5256
C 132.847 20.6031 11.3517
C 131.832 15.7559 16.8564
C 135.637 14.643 11.8628
H 134.654 19.0738 10.0312
H 132.201 17.4056 15.0848
H 135.553 16.8931 10.641
H 132.196 19.2365 13.5557
H 137.211 13.9654 13.9148
H 133.85 15.0227 19.0306
H 134.716 13.5337 19.2629
H 131.86 14.071 20.3037
H 132.771 12.5609 20.5536
H 133.351 14.0833 21.2927
H 135.129 11.204 15.8538
H 134.744 11.8301 17.4867
H 136.297 12.2624 16.6845
H 131.821 20.75 11.722
H 132.872 20.7083 10.2565
H 133.479 21.3918 11.7892
H 132.201 16.7023 17.2877
H 130.987 15.9855 16.1852
H 131.472 15.1065 17.6694
H 136.702 14.9224 11.9297
H 135.519 13.5655 12.0645
H 135.292 14.8306 10.8324
C 11.7944 9.86606 12.2526
C 10.5105 9.49175 12.8383
C 11.4987 6.03552 9.35419
C 10.2149 5.66485 10.0007
C 12.3792 9.12462 11.187
C 9.84817 8.36308 12.4021
C 12.1929 7.1694 9.74042
C 9.69593 6.45376 11.0025
C 11.6931 7.95668 10.7315
C 10.4086 7.59456 11.3837
C 12.4422 10.9913 12.7644
C 11.8111 11.7953 13.7805
C 10.5423 11.4044 14.3247
C 9.92527 10.2903 13.8783
C 12.0142 5.21905 8.33877
C 11.3343 4.1019 7.94718
C 10.1215 3.7304 8.54103
C 9.5711 4.48615 9.54246
C 13.725 11.4015 12.2269
C 14.2941 12.6013 12.6983
C 13.6451 13.3482 13.6644
C 12.4344 12.9699 14.2088
C 14.2712 10.6314 11.1527
C 13.6178 9.56162 10.6352
S 15.8356 11.0501 10.3608
C 8.25146 4.03338 10.1492
H 8.89987 8.07647 12.8501
H 13.133 7.41108 9.25196
H 8.75789 6.19826 11.4876
H 10.0773 12.0099 15.1018
H 8.96664 9.99886 14.3054
H 12.9572 5.47511 7.86014
H 11.7445 3.47936 7.15008
H 9.61394 2.82832 8.19821
H 15.2244 12.972 12.2747
H 14.0995 14.2836 14.0014
H 11.9601 13.5961 14.9623
H 14.0739 9.02438 9.80706
H 16.5441 11.2185 11.497
H 7.9024 3.10417 9.67073
H 8.37304 3.85925 11.2311
H 7.48743 4.81747 10.0176
C 26.6766 121.436 43.4385
C 27.2129 120.439 42.5536
C 26.6253 123.871 39.47
C 26.2356 122.704 42.9594
C 27.2943 120.646 41.1657
C 26.334 124.135 40.7492
C 27.0094 122.418 39.268
C 26.4645 122.924 41.5648
C 26.936 121.905 40.723
C 26.5553 121.162 44.8227
C 26.9546 119.903 45.3648
C 27.5102 118.925 44.4807
C 27.6736 119.178 43.0863
C 26.0083 122.14 45.7323
C 25.9014 121.785 47.1099
C 26.2948 120.564 47.5685
C 26.8377 119.565 46.7534
C 25.565 123.36 45.211
C 25.6416 123.605 43.879
C 27.9252 117.676 45.0535
C 28.5159 116.721 44.2049
C 28.7078 117.0 42.8673
C 28.3082 118.208 42.2907
N 27.2179 118.406 47.1986
C 27.7071 117.539 46.4589
C 27.6703 119.518 40.2344
C 28.6329 118.533 40.8554
C 24.9938 124.865 43.4035
O 24.8705 125.795 44.134
C 26.4014 118.812 39.8757
C 30.0507 119.16 40.8554
H 26.6052 124.611 38.675
H 26.0723 125.122 41.1279
H 28.0208 122.317 38.8471
H 26.3007 121.894 38.6096
H 25.4861 122.506 47.8121
H 26.1819 120.352 48.634
H 25.1093 124.096 45.8705
H 28.8426 115.766 44.6108
H 29.2021 116.256 42.2412
H 28.0061 116.585 46.9135
H 28.1101 119.944 39.3209
H 28.6586 117.603 40.2697
H 24.5303 124.956 42.4021
H 26.5954 117.994 39.1594
H 25.9261 118.385 40.7753
H 25.6853 119.509 39.4072
H 30.3679 119.397 39.8287
H 30.0588 120.083 41.452
H 30.7794 118.457 41.2853
C 76.3 109.509 144.012
C 76.251 109.782 142.664
C 76.2049 111.105 142.289
N 76.1971 112.065 143.113
C 76.2397 111.834 144.349
C 76.2993 110.573 144.894
C 76.156 111.387 140.833
O 76.1503 110.513 140.012
C 76.2134 112.965 145.38
C 77.8981 118.459 145.062
C 76.6644 117.736 144.845
C 79.0931 114.585 147.298
C 79.0157 117.924 145.779
C 76.5244 116.429 145.356
C 79.6935 115.756 147.036
C 77.7048 114.518 146.713
C 78.8012 116.595 146.256
C 77.5957 115.906 146.031
C 77.9713 119.77 144.542
C 76.8274 120.285 143.849
N 75.7433 119.575 143.681
C 75.6486 118.421 144.12
C 79.1966 120.531 144.75
C 79.2415 121.826 144.225
C 78.1302 122.301 143.574
C 76.9686 121.577 143.39
C 80.2822 119.956 145.472
C 80.1857 118.695 145.969
C 77.6859 113.356 145.687
H 76.337 108.48 144.376
H 76.2474 108.98 141.925
H 76.3361 110.408 145.971
H 76.1218 112.422 140.442
H 75.686 113.829 144.955
H 75.6988 112.65 146.3
H 79.5522 113.786 147.872
H 75.5994 115.873 145.224
H 80.6942 116.04 147.363
H 76.9409 114.372 147.484
H 74.7078 117.88 143.944
H 80.129 122.445 144.336
H 78.1719 123.317 143.183
H 76.131 122.034 142.867
H 81.1917 120.534 145.628
H 81.0233 118.272 146.523
H 78.2249 112.49 146.09
H 78.2078 113.655 144.77
C 68.154 108.354 141.548
C 68.8136 108.062 142.806
C 70.4513 104.615 140.35
C 68.2832 107.5 140.449
C 69.6201 106.911 142.957
C 69.5828 105.346 139.684
N 70.6395 104.993 141.645
C 69.1365 106.395 140.643
C 69.8037 106.123 141.871
C 67.3044 109.504 141.434
C 67.0018 110.288 142.608
C 67.6367 109.951 143.837
C 68.5245 108.904 143.912
C 66.7598 109.89 140.201
C 65.8859 110.953 140.106
C 65.5011 111.646 141.254
C 66.0847 111.357 142.471
C 67.4583 107.681 139.205
C 67.2312 109.203 138.943
N 70.1782 106.602 144.19
C 70.4013 107.723 145.049
C 69.1539 108.588 145.272
C 67.2235 110.742 145.076
C 66.856 112.146 144.701
C 65.7267 112.167 143.713
O 65.4179 111.297 138.906
O 64.5628 112.591 141.118
C 69.9026 105.328 144.773
C 68.421 105.017 144.919
H 70.9887 103.774 139.917
H 69.2801 105.229 138.645
H 71.3439 104.592 142.297
H 66.4895 107.177 139.329
H 67.9487 107.206 138.344
H 68.169 109.665 138.609
H 66.5029 109.354 138.135
H 70.8081 107.386 146.016
H 71.1588 108.368 144.567
H 69.4382 109.508 145.798
H 68.4286 108.064 145.911
H 68.0286 110.751 145.824
H 66.3754 110.236 145.566
H 66.5743 112.715 145.603
H 67.731 112.667 144.283
H 64.8058 111.76 144.163
H 65.4942 113.208 143.434
H 64.8242 112.056 138.987
H 64.2631 112.936 141.96
H 70.3407 104.539 144.145
H 70.3862 105.263 145.762
H 67.9414 104.963 143.927
H 67.9151 105.801 145.504
H 68.2748 104.051 145.431
C 126.121 7.57558 4.95286
C 125.075 7.25752 5.89387
C 125.803 3.06882 3.86468
C 126.667 6.57517 4.07383
C 124.55 5.94194 5.96425
C 126.565 4.11726 3.49654
C 124.772 3.47861 4.89795
C 126.098 5.28035 4.23758
C 125.073 4.98047 5.12741
C 126.648 8.8669 4.82843
C 126.135 9.89549 5.70218
C 125.094 9.58679 6.62664
C 124.578 8.31966 6.70208
C 127.665 9.14685 3.84511
C 128.162 10.4523 3.80519
C 127.669 11.4236 4.65783
C 126.683 11.1846 5.59192
C 128.111 8.11808 2.94662
C 127.651 6.82602 3.07192
C 127.997 5.69824 2.11498
C 127.819 4.26589 2.65039
C 123.463 5.57821 6.93246
C 122.632 6.80928 7.36283
C 123.451 8.08199 7.67727
C 121.703 7.14632 6.1779
C 124.097 4.89652 8.10181
C 124.045 8.04074 9.04736
C 129.094 8.4744 1.84349
H 125.94 2.05494 3.50371
H 123.748 3.32462 4.5287
H 124.881 2.8939 5.82245
H 124.701 10.3734 7.26694
H 128.942 10.721 3.09806
H 128.078 12.4337 4.5805
H 126.329 11.989 6.23351
H 127.383 5.81871 1.21117
H 129.032 5.82076 1.76871
H 127.802 3.54019 1.82661
H 128.688 3.99469 3.26531
H 122.801 4.84611 6.44376
H 122.014 6.54779 8.23079
H 122.781 8.95489 7.63631
H 121.061 6.28676 5.92732
H 121.038 7.98824 6.42772
H 122.291 7.41471 5.28617
H 123.375 4.78332 8.92859
H 124.446 3.88821 7.82316
H 124.977 5.45525 8.45441
H 123.294 7.72809 9.79229
H 124.901 7.35111 9.08577
H 124.416 9.03748 9.34274
H 128.857 9.46406 1.41983
H 130.12 8.50429 2.24908
H 129.056 7.73722 1.02656
C 96.5192 140.69 140.629
N 95.3734 140.833 140.122
C 94.8948 139.913 139.369
N 95.4937 138.809 139.077
C 96.6565 138.609 139.563
C 97.2767 139.549 140.381
C 96.9835 141.784 141.493
O 98.0363 141.81 142.074
C 97.4072 137.318 139.274
C 98.6434 139.313 140.964
N 100.956 137.389 139.803
C 105.387 137.271 141.762
C 101.972 136.687 140.073
C 104.391 136.55 141.107
C 100.878 138.634 140.133
C 105.275 138.616 142.108
C 102.214 140.602 141.343
C 103.469 140.633 141.903
C 103.145 137.153 140.752
C 101.919 139.275 140.833
C 104.085 139.315 141.794
C 103.083 138.53 141.136
C 102.131 135.224 139.772
C 103.594 134.787 139.547
C 104.498 135.084 140.753
C 99.7704 139.608 139.889
C 100.238 141.079 139.952
C 101.06 141.564 141.167
H 93.8894 140.062 138.937
H 96.3441 142.673 141.671
H 98.351 137.515 138.738
H 97.6381 136.774 140.207
H 96.7836 136.661 138.637
H 98.7318 138.269 141.289
H 98.8083 139.926 141.857
H 106.312 136.752 142.018
H 106.094 139.123 142.616
H 103.932 141.502 142.361
H 101.69 134.636 140.595
H 101.515 134.968 138.893
H 103.992 135.286 138.657
H 103.621 133.712 139.332
H 105.547 134.822 140.538
H 104.204 134.472 141.62
H 99.337 139.416 138.899
H 100.834 141.279 139.052
H 99.36 141.728 139.849
H 100.444 141.584 142.076
H 101.434 142.587 141.018
C 121.706 2.47405 142.097
C 122.311 2.94748 140.965
C 123.643 2.72413 140.757
C 124.359 2.01727 141.695
C 123.756 1.54787 142.838
C 122.423 1.77879 143.033
C 126.662 2.98465 141.589
C 127.152 3.6155 140.45
C 130.628 9.13291 145.483
C 126.851 3.39273 142.92
C 130.866 9.38866 144.188
C 127.943 4.73686 140.613
C 129.741 7.93786 145.714
C 130.205 8.25832 141.948
C 129.543 7.16898 141.414
C 128.02 5.29888 144.368
C 130.201 8.38355 143.355
C 127.617 4.51535 143.114
C 129.539 7.49305 144.258
C 128.138 5.13576 141.952
C 128.873 6.32309 142.333
C 128.84 6.4359 143.745
C 128.487 5.67888 139.565
C 129.639 6.63153 140.005
O 126.84 3.1337 139.247
O 130.832 9.12598 141.165
C 128.391 8.35682 146.316
C 125.843 1.70821 141.431
C 131.173 9.96704 146.624
H 120.642 2.65121 142.255
H 121.729 3.49841 140.225
H 124.131 3.0908 139.854
H 124.327 0.985226 143.577
H 121.93 1.40412 143.931
H 126.407 2.85492 143.757
H 131.472 10.2144 143.822
H 130.228 7.16704 146.323
H 127.142 5.68166 144.903
H 128.624 4.69624 145.058
H 128.812 5.10519 138.686
H 127.653 6.29113 139.196
H 130.599 6.10488 139.888
H 129.737 7.46904 139.301
H 127.239 3.6974 138.584
H 131.354 9.72454 141.706
H 127.717 7.49205 146.369
H 127.925 9.12715 145.686
H 128.529 8.75178 147.331
H 126.194 0.950533 142.145
H 125.962 1.31959 140.41
H 130.344 10.4855 147.138
H 131.894 10.7135 146.248
H 131.662 9.3126 147.368
C 16.9306 23.3847 2.35588
C 15.8677 22.6908 1.8207
C 12.3921 14.9936 4.60001
C 17.5907 22.9016 3.47878
C 13.2688 14.701 5.64002
C 12.4427 16.1349 3.77358
C 15.4378 21.509 2.3883
C 15.3153 15.5646 6.94342
C 16.2518 16.5754 7.08668
N 17.742 21.0141 5.19185
C 17.1317 18.839 6.2397
C 13.733 18.5003 3.47019
C 14.2824 15.6371 5.94249
C 17.228 21.7263 4.09663
C 13.3725 17.1139 4.0456
C 16.2418 17.7319 6.2492
C 16.988 19.8544 5.34278
C 16.1284 21.0664 3.51541
C 14.9912 18.8294 4.27582
C 14.2443 16.8135 5.11035
C 15.9537 19.8274 4.36317
C 15.2089 17.8378 5.24742
C 13.2356 13.5189 6.54782
C 14.5554 13.1612 7.04828
C 15.2486 14.3509 7.83417
C 17.3245 16.5791 8.16582
C 18.5207 17.3775 7.71598
C 18.1929 18.7933 7.33285
O 11.6299 16.2807 2.72534
C 12.691 19.5144 3.80277
C 11.5103 19.4569 2.88361
C 12.6777 12.3408 5.83042
C 18.7741 23.6983 4.02427
H 17.2569 24.3147 1.89454
H 15.3606 23.0792 0.93544
H 11.6022 14.2822 4.36899
H 14.6049 20.9471 1.96853
H 18.5427 21.2992 5.79012
H 13.9346 18.4626 2.39273
H 12.5686 13.7598 7.40106
H 15.207 12.8497 6.21567
H 14.4884 12.2834 7.71318
H 16.2464 14.0505 8.17497
H 14.6807 14.5836 8.73818
H 17.6189 15.5468 8.41061
H 16.902 16.9904 9.09676
H 19.0013 16.871 6.86582
H 19.2753 17.3834 8.51832
H 17.8252 19.3431 8.20446
H 19.0911 19.3375 7.00333
H 11.96 17.0133 2.19965
H 12.3649 19.3843 4.84908
H 13.1303 20.5255 3.77631
H 11.8245 19.409 1.82672
H 10.8918 18.5716 3.10924
H 10.8897 20.363 3.0003
H 12.7758 11.4253 6.44071
H 11.608 12.5041 5.62052
H 13.2384 12.1716 4.89202
H 19.6011 23.6833 3.29863
H 19.1165 23.2659 4.97525
H 18.4742 24.7421 4.19767
C 3.05091 71.4839 74.0502
C 3.31947 70.2202 73.363
C 4.27927 73.1239 69.9202
C 3.27828 72.7098 73.4031
C 3.84694 70.2553 72.0402
C 4.03856 73.7487 71.0785
N 4.2002 71.7632 70.0333
C 3.72429 72.6709 72.0817
C 3.92565 71.4516 71.3865
C 2.57717 71.4638 75.3821
C 2.34126 70.2764 76.0127
C 2.43414 69.0857 75.2795
C 3.00558 69.0136 74.0034
C 3.05094 74.0272 74.1245
C 1.97305 73.8645 75.1642
C 2.33905 72.7781 76.1246
C 4.27437 68.9866 71.3594
C 4.50208 67.9235 72.3092
C 3.2899 67.7011 73.3101
C 4.6426 73.8755 68.684
C 4.33338 75.4076 68.7858
C 4.79675 75.9635 70.1259
C 4.04337 75.2375 71.2873
C 1.85286 67.9087 76.0238
O 0.984543 67.253 75.5493
O 2.03953 70.174 77.3094
C 3.70764 66.5788 74.2776
C 4.35314 65.4011 73.6209
C 4.4416 77.4565 70.1513
C 5.55595 69.1655 70.6115
C 6.3107 75.82 70.3191
C 2.02874 67.2949 72.5218
H 4.26896 71.109 69.2265
H 3.99199 74.3635 74.5916
H 2.76934 74.8099 73.4049
H 1.81749 74.8131 75.7034
H 1.01187 73.6339 74.6799
H 1.53573 72.6566 76.8708
H 3.24305 73.0486 76.6956
H 3.48412 68.6951 70.6394
H 5.40816 68.1334 72.9029
H 4.70642 66.9843 71.7697
H 4.1307 73.4385 67.8079
H 5.7121 73.7219 68.4547
H 3.25619 75.5716 68.6549
H 4.82667 75.9328 67.9564
H 3.00588 75.596 71.3371
H 4.50356 75.483 72.2535
H 2.10658 67.7067 77.0842
H 2.08957 71.0305 77.7294
H 2.83427 66.2171 74.8297
H 4.38545 66.992 75.0391
H 3.72192 65.003 72.809
H 5.34988 65.6549 73.2241
H 4.49875 64.5853 74.3512
H 4.71908 77.9093 71.1144
H 3.36157 77.6018 69.9946
H 4.97203 77.9949 69.3502
H 5.42069 69.7416 69.6861
H 6.3058 69.6759 71.2432
H 5.96554 68.1865 70.2993
H 6.63216 76.3197 71.246
H 6.85666 76.2766 69.4791
H 6.59603 74.7601 70.3902
H 2.24053 66.4451 71.8568
H 1.2206 67.0082 73.2102
H 1.66428 68.1384 71.9177
C 34.4975 15.2862 121.357
C 33.6879 16.0569 122.336
C 35.1061 11.7219 124.468
C 34.3957 12.4291 125.433
C 35.1301 14.0902 121.665
C 33.5367 15.5248 123.623
C 35.3462 12.2581 123.24
C 33.8939 13.661 125.189
C 34.8753 13.5515 122.923
C 34.0737 14.271 123.937
C 34.7041 15.833 120.068
C 34.2084 17.0688 119.772
C 33.4643 17.7869 120.706
C 33.1724 17.2941 121.935
N 36.0103 13.4759 120.772
C 35.5616 13.6114 119.42
C 35.4884 15.1019 118.993
C 32.9153 16.2504 124.787
O 31.7569 16.1969 125.026
C 33.8877 16.8843 125.768
O 32.3728 18.0813 122.666
O 34.1919 11.8977 126.641
C 37.3894 13.643 121.093
C 36.357 12.8582 118.35
C 34.3902 17.7141 118.4
C 41.6726 13.7653 121.787
C 42.047 12.9679 122.835
C 41.2065 11.9974 123.302
C 39.9839 11.8255 122.701
C 39.6054 12.6226 121.635
C 40.4562 13.6019 121.185
C 38.2819 12.4068 120.898
C 39.0752 10.7235 123.238
H 35.4777 10.7185 124.687
H 35.8887 11.6768 122.498
H 33.3212 14.163 125.968
H 33.0578 18.7587 120.423
H 34.5241 13.241 119.419
H 34.9966 15.2045 118.015
H 36.493 15.5345 118.89
H 33.5352 16.7346 126.801
H 33.9475 17.9695 125.589
H 34.8884 16.4395 125.644
H 31.8555 17.5562 123.274
H 34.5454 11.0039 126.65
H 37.7874 14.4742 120.491
H 37.46 13.9827 122.141
H 36.4579 11.7987 118.639
H 35.8277 12.892 117.385
H 37.357 13.2973 118.223
H 34.125 18.7816 118.44
H 33.7295 17.2265 117.665
H 35.4291 17.6056 118.055
H 42.3542 14.5357 121.425
H 43.0232 13.1067 123.302
H 41.5085 11.3649 124.136
H 40.1724 14.2375 120.347
H 37.7706 11.5146 121.275
H 38.4801 12.2495 119.831
H 38.1401 11.1627 123.619
H 39.5745 10.1742 124.05
H 38.8201 10.017 122.432
C 66.5886 35.5066 103.204
C 71.4314 31.6697 107.004
C 66.2252 36.225 104.415
C 71.0487 32.3984 108.242
C 67.5562 34.4955 103.258
C 70.7953 31.9335 105.808
C 66.4231 36.6876 106.824
C 69.6937 34.1104 109.491
C 67.0033 36.4066 108.049
C 68.6164 35.1515 109.339
C 69.1006 33.1327 104.563
C 66.8292 35.9294 105.637
C 70.0526 33.3636 108.184
C 68.0361 35.4035 108.131
C 68.1538 34.1714 104.474
C 69.7803 32.8819 105.755
C 67.8142 34.9118 105.707
C 69.4217 33.6399 106.993
C 68.4309 34.6366 106.916
C 65.9497 35.8568 101.989
C 65.0088 36.8656 101.962
C 64.6488 37.5725 103.095
C 65.2408 37.2653 104.327
C 64.887 37.9987 105.507
C 65.4517 37.73 106.699
C 72.4578 30.6977 107.053
C 73.0688 30.459 108.254
C 72.7073 31.1451 109.423
C 71.7266 32.0898 109.432
C 66.4978 37.1317 109.249
O 67.2356 37.6615 110.018
O 72.8127 30.0329 105.959
C 69.3888 32.2924 103.333
H 67.8286 33.9841 102.343
H 71.1064 31.3937 104.919
H 69.3913 33.3855 110.266
H 70.5978 34.5862 109.906
H 68.3141 35.7088 110.215
H 66.2031 35.3362 101.07
H 64.5335 37.1268 101.012
H 63.9159 38.3712 103.023
H 64.1561 38.7887 105.427
H 65.1714 38.3223 107.567
H 73.8652 29.7141 108.318
H 73.2311 30.9146 110.353
H 71.4851 32.5977 110.363
H 65.4158 37.2443 109.463
H 73.5282 29.4099 106.147
H 69.6648 31.264 103.616
H 70.2157 32.7439 102.757
H 68.4974 32.2216 102.69
C 13.2724 4.23085 145.061
C 13.1941 5.67212 144.964
C 5.94016 8.82817 146.116
C 12.1036 3.42126 145.259
S 5.46582 7.26909 146.755
C 7.24083 8.9362 145.776
C 11.939 6.33786 145.169
C 7.31945 5.22613 146.026
C 9.42798 3.574 145.697
C 9.29228 7.37267 145.538
C 7.04331 6.57961 146.11
C 7.89996 7.63008 145.792
C 10.8861 4.02818 145.459
C 8.64207 4.8987 145.755
C 10.8579 5.43282 145.402
C 9.54062 5.96058 145.568
C 11.6774 7.74259 145.2
C 10.391 8.23924 145.362
C 14.5798 3.73503 144.944
C 15.6525 4.54833 144.641
C 15.5098 5.91928 144.463
C 14.2727 6.49751 144.638
C 14.0186 7.97531 144.362
C 12.9289 8.59406 145.211
C 12.1223 1.92003 145.13
O 11.7841 1.21903 146.027
O 6.41075 4.25188 146.167
C 9.26209 2.86768 147.059
C 7.88196 10.3076 145.588
C 12.6057 9.95682 144.689
C 8.94187 2.66802 144.546
C 14.9094 2.26292 145.148
H 5.23601 9.65758 146.139
H 10.2269 9.30941 145.401
H 16.6435 4.10893 144.529
H 16.371 6.52879 144.189
H 14.959 8.53548 144.481
H 13.7609 8.08598 143.298
H 13.2834 8.66803 146.249
H 12.3906 1.41536 144.182
H 5.57233 4.68121 146.32
H 9.66017 3.50812 147.86
H 8.19628 2.68103 147.256
H 9.80295 1.9124 147.067
H 8.59892 10.4745 146.406
H 7.11205 11.0925 145.644
H 8.40513 10.3667 144.622
H 11.9299 10.502 145.368
H 13.5225 10.5659 144.609
H 12.1193 9.88567 143.7
H 7.87055 2.45329 144.665
H 9.11679 3.16317 143.583
H 9.49662 1.72022 144.543
H 15.9967 2.11913 145.254
H 14.5696 1.67404 144.282
H 14.4022 1.88367 146.051
C 95.5503 128.298 16.8669
C 96.3459 127.876 15.8184
C 96.2809 126.574 15.4033
C 95.4216 125.691 16.0193
C 94.6289 126.115 17.0626
C 94.6833 127.417 17.4922
O 95.3246 124.421 15.6265
C 95.6623 129.721 17.3716
C 94.5163 130.304 14.1338
C 91.616 126.8 9.13232
C 94.983 130.763 12.8315
C 92.5054 127.732 8.64936
C 93.5727 129.259 14.319
C 91.362 126.629 10.5128
C 94.4867 130.131 11.6352
C 93.2354 128.589 9.52
C 92.0601 127.516 12.9735
C 93.077 128.655 13.1991
C 92.0467 127.398 11.4504
C 93.5564 129.097 11.9394
C 92.9398 128.332 10.9059
C 94.755 130.359 10.2627
C 94.1656 129.631 9.25933
C 95.0309 130.962 15.2665
C 95.9357 131.978 15.1209
C 96.3547 132.39 13.8805
C 95.8886 131.799 12.7478
C 90.355 125.649 10.9977
O 89.8065 124.921 10.2348
C 92.626 126.238 13.6167
C 92.7037 127.866 7.14708
C 94.6052 130.642 16.6785
H 97.0289 128.572 15.3335
H 96.9188 126.242 14.5828
H 93.962 125.406 17.556
H 94.0645 127.747 18.3257
H 95.9491 124.249 14.9136
H 96.67 130.111 17.185
H 95.4892 129.734 18.4558
H 91.0707 126.171 8.42992
H 93.2514 128.934 15.3042
H 91.0708 127.759 13.3755
H 95.4562 131.145 9.9855
H 94.4174 129.862 8.22538
H 96.3222 132.482 16.0059
H 97.0698 133.209 13.8014
H 96.235 132.149 11.7768
H 90.0726 125.567 12.0656
H 91.9709 125.38 13.4145
H 93.6254 126.024 13.2126
H 92.7082 126.363 14.7058
H 93.7709 127.752 6.8951
H 92.3942 128.872 6.81584
H 92.1139 127.108 6.60722
H 93.6169 130.171 16.7062
H 94.526 131.577 17.2496
C 146.06 13.0301 137.815
C 145.906 13.5921 136.451
N 145.201 8.69273 136.156
C 145.081 9.12834 134.943
C 145.825 11.6818 138.063
C 145.509 12.7604 135.4
C 145.409 9.44668 137.121
C 145.152 10.4512 134.59
C 145.541 10.8441 136.989
C 145.391 11.3911 135.621
C 146.476 13.8771 138.86
C 146.747 15.1951 138.625
C 146.592 15.703 137.324
C 146.194 14.9471 136.252
C 145.972 11.1099 139.475
C 145.839 12.1471 140.544
C 146.722 13.3089 140.268
C 144.846 8.19988 133.77
O 144.515 8.60887 132.703
C 144.849 6.74328 134.131
C 144.42 12.5803 140.675
C 146.937 17.1709 137.088
C 145.249 13.3347 134.018
C 143.827 5.63045 131.627
C 145.054 5.27318 132.152
C 145.735 4.18477 131.603
C 145.16 3.46066 130.587
C 143.924 3.81249 130.101
C 143.277 4.90383 130.618
O 145.583 5.80898 133.177
C 147.072 3.80892 132.221
C 145.853 2.23055 129.999
H 145.507 8.98121 138.106
H 145.053 10.7624 133.55
H 147.095 15.8401 139.431
H 146.126 15.4004 135.267
H 146.952 10.6038 139.55
H 145.225 10.3121 139.628
H 146.149 11.6936 141.506
H 146.581 14.1044 141.02
H 147.784 13.018 140.352
H 145.372 6.58711 135.091
H 143.827 6.33741 134.195
H 144.305 13.3264 141.485
H 144.052 13.0247 139.731
H 143.765 11.7204 140.917
H 147.95 17.2539 136.662
H 146.913 17.7301 138.035
H 146.235 17.6183 136.367
H 144.857 14.3617 134.093
H 146.186 13.3508 133.434
H 144.506 12.7262 133.479
H 143.297 6.49905 132.014
H 143.46 3.23151 129.305
H 142.303 5.18861 130.215
H 147.011 3.89421 133.32
H 147.372 2.78706 131.941
H 147.845 4.52966 131.901
H 146.898 2.47025 129.748
H 145.862 1.41527 130.74
H 145.327 1.8824 129.098
C 6.76146 139.136 97.4312
C 7.44207 140.349 97.0881
C 9.9807 137.123 94.3456
C 10.5331 138.463 94.106
C 7.31872 137.99 96.8707
N 8.42276 140.444 96.2817
C 8.8696 137.01 95.1942
C 9.98563 139.573 94.7971
C 8.34536 138.124 95.9087
C 8.90454 139.447 95.6777
C 5.62774 139.235 98.3442
C 5.38592 140.546 98.9412
C 6.11408 141.72 98.5813
C 7.09611 141.581 97.6523
C 10.5648 136.019 93.6818
C 11.5909 136.257 92.8234
C 12.0724 137.525 92.5601
C 11.5556 138.608 93.1777
C 4.69018 138.273 98.718
C 3.76243 138.539 99.6867
C 3.58314 139.772 100.279
C 4.38307 140.784 99.8917
C 8.19882 135.668 95.305
O 7.36336 135.34 94.5268
O 5.82816 142.898 99.1332
O 7.06145 136.744 97.2326
O 10.1453 134.777 93.8948
O 4.56598 137.067 98.1287
C 10.523 140.914 94.5509
C 8.81391 143.249 92.6295
C 8.71528 144.605 92.4878
C 9.8078 145.394 92.7217
C 10.9975 144.831 93.0988
C 11.089 143.479 93.2638
C 9.99283 142.68 93.0445
O 9.99761 141.37 93.2837
H 7.66162 142.465 97.3447
H 12.0608 135.418 92.3041
H 12.8829 137.653 91.8419
H 11.9504 139.592 92.9329
H 3.07762 137.749 100.002
H 2.79681 139.931 101.019
H 4.24622 141.782 100.309
H 8.45435 134.939 96.0996
H 6.3964 143.597 98.7872
H 6.34933 136.703 97.8702
H 10.5469 134.146 93.281
H 3.87869 136.528 98.5429
H 10.173 141.656 95.2938
H 11.6193 140.926 94.4334
H 7.94254 142.614 92.4572
H 7.76627 145.053 92.1923
H 9.73098 146.475 92.6046
H 11.8703 145.461 93.2746
H 12.0389 143.036 93.5639
N 83.9468 27.1915 123.891
C 84.9115 27.2033 123.049
C 84.7346 26.9046 121.711
C 83.486 26.519 121.306
C 82.4764 26.4973 122.238
C 82.7958 26.879 123.526
C 81.6516 26.9089 124.491
O 80.5689 26.4722 124.217
C 81.9608 27.6094 125.822
O 86.1093 27.4723 123.355
C 80.6998 27.9705 126.561
C 84.4765 33.2788 126.275
C 83.909 32.8797 127.497
C 85.8732 28.7206 125.592
C 85.329 28.3508 126.851
C 85.1381 32.3531 125.517
C 83.9907 31.6023 127.994
C 85.8771 30.0489 125.154
C 84.7518 29.2873 127.649
C 85.2389 31.0081 125.941
C 84.6432 30.638 127.234
C 85.716 32.7554 124.155
C 86.8835 31.8993 123.808
C 86.4975 30.4517 123.818
C 87.3694 32.3081 122.476
C 83.1834 33.9397 128.32
C 84.1995 28.8449 128.999
C 86.5091 27.6067 124.854
C 91.0892 30.4276 121.45
C 89.9227 29.9182 120.975
C 88.7239 30.5068 121.307
C 88.7124 31.622 122.127
C 89.8803 32.1587 122.622
C 91.0787 31.5421 122.267
C 92.3575 32.117 122.784
O 93.3989 31.6028 122.531
H 85.5684 26.9359 121.011
H 83.2955 26.2345 120.267
H 81.4642 26.1985 121.967
H 82.6004 26.9659 126.447
H 82.5709 28.5089 125.639
H 80.937 28.5219 127.484
H 80.1379 27.0611 126.834