37918
Lattice='150.0 0.0 0.0 0.0 150.0 0.0 0.0 0.0 150.0' Properties=species:S:1:pos:R:3 Timestep:=T pbc=F F F 1229=T Atoms.=T
C 126.443 93.4503 33.9966
C 127.405 92.4678 34.1389
C 127.143 91.3619 34.8891
C 125.927 91.2158 35.5058
C 124.956 92.1718 35.3821
C 125.213 93.2853 34.6302
C 126.812 94.6283 33.1583
O 126.065 95.5341 32.9684
C 124.112 94.3298 34.5128
H 128.375 92.5749 33.6523
H 127.904 90.5886 34.9994
H 125.732 90.3249 36.103
H 123.994 92.0436 35.8774
H 127.807 94.7065 32.6758
H 124.479 95.3006 34.8857
H 123.218 94.0241 35.0798
H 123.851 94.4777 33.4516
C 2.62489 13.6957 124.125
C 2.93014 13.2985 125.42
C 4.24995 13.0333 125.742
C 5.267 13.1648 124.79
C 4.96069 13.5496 123.495
C 3.64736 13.8183 123.19
C 6.67497 12.849 125.193
O 7.47148 12.4133 124.427
O 1.96462 13.1175 126.327
O 5.91366 13.6649 122.571
O 1.35432 13.914 123.779
C 4.57343 12.523 127.141
H 3.39268 14.1194 122.171
H 7.02384 12.9642 126.238
H 1.12388 13.342 125.912
H 5.51173 13.8091 121.709
H 1.26046 14.1595 122.85
H 3.64855 12.2253 127.661
H 5.25818 11.66 127.092
H 5.06746 13.3163 127.722
C 142.169 144.419 145.532
C 142.684 143.177 145.922
C 141.829 142.204 146.446
C 140.478 142.498 146.614
C 139.952 143.704 146.143
C 140.805 144.682 145.63
C 143.126 145.489 145.03
O 143.35 145.549 143.869
C 143.82 146.412 145.986
C 144.159 142.956 145.745
O 144.791 142.36 146.554
C 143.298 146.31 147.41
C 139.564 141.48 147.285
C 140.265 146.026 145.155
C 142.392 140.838 146.811
C 138.454 143.972 146.213
H 143.733 147.449 145.62
H 144.904 146.205 145.968
H 144.718 143.385 144.889
H 143.825 147.025 148.063
H 143.46 145.297 147.814
H 142.221 146.537 147.454
H 138.722 141.985 147.781
H 139.166 140.78 146.533
H 140.121 140.907 148.043
H 139.555 146.437 145.889
H 139.742 145.9 144.193
H 141.087 146.741 144.996
H 143.228 140.583 146.139
H 142.792 140.861 147.838
H 141.618 140.059 146.737
H 138.19 144.369 147.207
H 138.153 144.707 145.452
H 137.89 143.041 146.044
C 98.4799 10.4765 18.4277
C 97.9832 11.1926 17.281
C 101.142 8.55377 15.282
C 99.523 9.47357 18.4078
C 98.5607 10.8831 16.068
C 101.076 8.33684 16.6454
N 100.28 9.46768 14.875
C 100.062 9.21648 17.1228
C 99.5704 9.93334 15.944
C 97.8978 10.7812 19.6765
C 96.8592 11.7747 19.72
C 96.5127 12.3675 18.4674
N 97.0394 12.0844 17.3812
C 98.3337 10.1129 20.8813
C 97.7222 10.4517 22.0992
C 96.7272 11.4053 22.1286
C 96.2973 12.0578 20.978
C 99.3649 9.13591 20.789
C 99.9322 8.83374 19.5967
C 101.934 7.35102 17.415
C 95.1939 13.0945 21.1016
H 101.823 8.03664 14.6043
H 98.2068 11.4064 15.1746
H 100.165 9.78234 13.8866
H 95.7207 13.1286 18.4728
H 98.0311 9.95968 23.0192
H 96.2642 11.6503 23.0864
H 99.6981 8.62494 21.6906
H 100.716 8.08184 19.5621
H 102.623 6.82812 16.7299
H 101.293 6.60908 17.9199
H 102.522 7.88345 18.1816
H 95.552 14.0722 20.7367
H 94.3319 12.8014 20.4782
H 94.8676 13.1915 22.1504
N 8.88661 31.4664 7.81127
C 9.84593 32.0807 7.21235
N 10.0765 32.051 5.9531
C 9.32352 31.3724 5.20003
C 8.26119 30.6668 5.70836
C 8.10367 30.7693 7.06001
C 9.62577 31.3634 3.74894
O 9.1407 30.6013 2.96064
O 7.41222 29.8853 4.99584
C 7.21656 23.9146 2.57333
C 5.95266 24.4878 2.58344
C 5.74701 25.7237 3.16636
C 6.82668 26.397 3.73807
C 8.10226 25.8232 3.72857
C 8.28964 24.5855 3.14641
C 6.58848 27.7341 4.36156
O 5.46463 28.0609 4.55512
C 7.72157 28.517 4.7613
O 7.39633 22.7218 2.01198
O 9.50572 24.0319 3.145
H 10.5261 32.6828 7.84171
H 7.2737 30.2316 7.53805
H 10.3793 32.0525 3.32281
H 5.10741 23.9668 2.13061
H 4.75321 26.1724 3.17372
H 8.94502 26.3434 4.18373
H 8.16773 28.1398 5.70449
H 8.50298 28.5334 3.97502
H 6.58427 22.3744 1.62043
H 10.1869 24.6369 3.45538
C 14.9184 25.0269 142.069
C 15.8432 26.1306 142.089
C 11.9161 28.3339 142.895
C 13.5366 25.1712 142.263
C 15.3232 27.4037 142.301
C 11.7451 26.9836 142.746
N 13.1827 28.7151 142.76
C 13.0659 26.4523 142.489
C 13.9498 27.6274 142.515
C 15.4802 23.7124 141.828
C 16.9168 23.6576 141.634
C 17.6327 24.8808 141.701
N 17.1109 25.9932 141.911
C 14.7593 22.5315 141.755
C 15.4 21.358 141.503
C 16.7711 21.3038 141.3
C 17.5455 22.4306 141.353
C 16.2324 28.5729 142.308
O 15.8162 29.6722 142.497
O 14.7274 20.2088 141.433
C 10.455 26.195 142.836
H 11.1122 29.0392 143.107
H 12.8551 24.325 142.251
H 13.573 29.6843 142.835
H 18.7185 24.8377 141.531
H 13.6809 22.5373 141.9
H 17.2387 20.3376 141.097
H 18.6198 22.3762 141.182
H 17.3211 28.4875 142.136
H 13.797 20.3707 141.618
H 10.5396 25.4385 143.635
H 10.2817 25.6555 141.889
H 9.60772 26.8693 143.048
C 120.441 30.3315 4.79511
C 120.297 28.9669 4.23068
C 125.183 30.1406 4.04647
C 125.025 28.7467 3.54748
C 121.686 30.9362 4.9154
C 121.435 28.2745 3.85547
C 124.088 30.8636 4.48402
C 123.782 28.1639 3.50754
C 122.832 30.2791 4.46333
C 122.681 28.8808 3.93618
C 119.263 30.9893 5.1999
C 118.038 30.3948 5.09624
C 117.93 29.1105 4.57018
C 119.003 28.4156 4.10176
C 126.468 30.7126 4.0677
C 127.536 29.973 3.63078
C 127.383 28.6452 3.15613
C 126.159 28.034 3.10937
C 121.782 32.3374 5.49575
C 120.626 32.6318 6.41862
C 119.316 32.4216 5.72774
O 118.752 27.2564 3.49847
C 128.919 30.6147 3.66523
C 128.597 27.8538 2.6782
H 121.365 27.2574 3.483
H 124.227 31.8805 4.83716
H 123.667 27.1496 3.13319
H 117.137 30.9284 5.40703
H 116.934 28.6626 4.48441
H 126.613 31.729 4.42786
H 126.064 27.0151 2.74004
H 121.815 33.0671 4.66983
H 122.733 32.4505 6.03857
H 120.686 31.9882 7.30969
H 120.695 33.6668 6.78833
H 118.47 32.6064 6.41103
H 119.189 33.1291 4.89156
H 119.51 26.9444 2.99583
H 129.358 30.6341 2.65512
H 128.863 31.6441 4.05153
H 129.598 30.0295 4.30628
H 128.301 26.845 2.35185
H 129.339 27.7648 3.48734
H 129.086 28.372 1.83812
C 135.406 75.501 43.074
C 135.558 74.6121 41.9073
C 131.987 78.0199 40.7319
C 132.137 77.0864 39.5653
C 134.449 76.5122 43.0703
C 134.73 74.8182 40.8043
C 132.768 77.8243 41.8845
C 133.03 76.0412 39.611
C 133.665 76.7587 41.9351
C 133.807 75.8581 40.7536
C 136.274 75.2794 44.1676
C 137.22 74.2906 44.1517
C 137.344 73.4537 43.0349
C 136.537 73.6028 41.9415
C 131.062 79.0313 40.553
N 130.401 79.1708 39.507
C 130.504 78.3989 38.4917
C 131.327 77.356 38.4366
C 134.315 77.3919 44.2993
C 134.803 76.6889 45.5425
C 136.21 76.2028 45.3805
C 134.804 73.8324 39.6746
O 135.362 74.0759 38.659
C 134.067 72.522 39.906
O 130.923 79.8595 41.5847
O 129.764 78.6182 37.4066
H 132.665 78.5146 42.7167
H 133.138 75.3809 38.7534
H 137.89 74.1586 45.0039
H 138.111 72.676 43.0392
H 136.676 72.9434 41.0864
H 131.389 76.721 37.5517
H 134.878 78.3247 44.1317
H 133.262 77.6902 44.426
H 134.739 77.3698 46.4046
H 134.141 75.8417 45.777
H 136.557 75.6697 46.2827
H 136.908 77.0439 45.2394
H 133.612 72.5151 40.9102
H 134.762 71.6728 39.808
H 133.28 72.3968 39.1461
H 130.251 80.5137 41.3195
H 129.939 77.9865 36.6914
C 89.8603 34.1877 59.4005
C 88.7261 33.6348 58.6428
C 92.451 30.3831 57.9335
C 91.3428 29.9522 57.1815
C 91.013 33.4038 59.527
C 88.8464 32.4713 57.9173
C 92.3732 31.5079 58.7022
C 90.1576 30.6241 57.1539
C 91.1802 32.2538 58.745
C 90.041 31.7893 57.9223
C 89.6959 35.4866 59.9611
C 88.4614 36.1258 59.9538
C 87.3552 35.5339 59.3108
C 87.4876 34.323 58.6633
C 90.8982 36.2551 60.4222
O 90.8784 36.9076 61.4149
C 86.029 36.2937 59.2307
O 85.2362 36.192 60.1031
C 85.8382 37.1564 58.0266
C 84.3717 37.5137 57.8278
C 88.287 37.4998 60.5873
C 91.4781 28.6987 56.3189
C 86.2856 33.7167 57.9573
C 92.0801 33.7188 60.562
H 93.3798 29.8127 57.8995
H 88.0147 32.0884 57.3348
H 93.2487 31.823 59.2665
H 89.3273 30.2672 56.5491
H 91.8352 36.2732 59.8352
H 86.2397 36.6498 57.1314
H 86.4472 38.0733 58.1167
H 83.7656 36.5999 57.7214
H 83.9914 38.0686 58.7005
H 84.2397 38.1336 56.9269
H 88.471 37.4374 61.6727
H 87.2684 37.8872 60.4299
H 89.0217 38.2101 60.1739
H 90.5045 28.1948 56.2186
H 92.2173 28.0079 56.752
H 91.8202 28.9754 55.309
H 86.446 33.7227 56.8656
H 86.1496 32.6722 58.2837
H 85.3703 34.2808 58.1953
H 92.8952 34.3044 60.1058
H 91.6411 34.2771 61.4053
H 92.5099 32.7846 60.9597
C 143.946 4.60187 8.3425
C 145.404 4.59235 8.32626
C 143.972 2.47647 4.00849
C 145.455 2.48653 4.03045
C 143.187 4.06715 7.26352
C 146.085 4.06325 7.24817
C 143.244 2.99466 5.06556
C 146.122 3.01643 5.11274
C 143.887 3.52132 6.14266
C 145.37 3.53676 6.172
C 143.31 5.15306 9.45788
C 144.076 5.6846 10.556
C 145.509 5.65694 10.5046
C 146.142 5.13315 9.43369
C 143.311 1.92938 2.89844
C 144.026 1.41569 1.85435
C 145.427 1.41384 1.85033
C 146.125 1.93367 2.9078
C 141.863 5.19732 9.52552
C 141.257 5.73867 10.677
C 142.035 6.23572 11.7055
C 143.415 6.22162 11.6644
C 141.141 4.66644 8.41179
C 141.766 4.10678 7.34508
S 139.339 4.70353 8.32841
C 147.645 1.90349 2.85097
H 147.172 4.05639 7.24102
H 142.159 2.9697 5.02084
H 147.207 3.02921 5.14751
H 146.087 6.06067 11.3355
H 147.231 5.11982 9.41109
H 142.223 1.90893 2.8639
H 143.496 0.992859 0.998735
H 145.959 0.99236 0.996121
H 140.174 5.76523 10.7696
H 141.54 6.65374 12.5871
H 143.986 6.62454 12.4996
H 141.158 3.71077 6.53568
H 139.201 6.02723 8.5554
H 147.991 1.44152 1.91204
H 148.043 2.92901 2.9197
H 148.04 1.32817 3.70449
C 39.2927 107.146 118.806
C 39.9465 105.89 118.558
C 40.4117 106.019 123.182
C 39.2253 107.713 120.112
C 40.5927 105.176 119.581
C 39.7313 107.018 122.606
C 40.9916 105.064 122.156
C 39.7709 106.889 121.146
C 40.4552 105.698 120.853
C 38.7142 107.863 117.731
C 38.7666 107.364 116.394
C 39.3936 106.099 116.162
C 39.9611 105.334 117.225
C 38.0636 109.133 117.946
C 37.5193 109.806 116.813
C 37.6023 109.281 115.559
C 38.2112 108.055 115.267
C 38.0438 109.664 119.242
C 38.6385 108.994 120.262
C 39.4125 105.605 114.816
C 39.9879 104.341 114.579
C 40.4898 103.596 115.626
C 40.4818 104.059 116.944
N 38.2802 107.554 114.071
C 38.8152 106.46 113.839
C 41.4391 103.964 119.273
C 40.936 103.181 118.082
C 38.7202 109.719 121.568
O 37.9042 110.532 121.861
C 42.8264 104.456 119.001
C 39.7069 102.342 118.513
H 40.5219 105.894 124.255
H 39.1988 107.794 123.154
H 40.6186 104.039 122.294
H 42.0913 105.049 122.182
H 37.0311 110.769 116.955
H 37.1677 109.849 114.734
H 37.599 110.642 119.42
H 40.0178 103.942 113.567
H 40.8964 102.605 115.419
H 38.8318 106.103 112.8
H 41.4632 103.315 120.16
H 41.7167 102.498 117.719
H 39.5756 109.598 122.26
H 43.5122 103.614 118.805
H 42.8396 105.131 118.128
H 43.221 105.013 119.869
H 39.9743 101.651 119.327
H 38.893 102.996 118.858
H 39.3351 101.743 117.668
C 143.368 66.2108 2.43797
C 143.388 65.8741 3.7729
C 143.89 66.8084 4.64794
N 144.331 67.9394 4.28786
C 144.321 68.264 3.07221
C 143.847 67.453 2.06836
C 143.913 66.4576 6.08778
O 143.515 65.406 6.50463
C 144.866 69.6174 2.61124
C 145.353 74.7129 5.27076
C 146.196 73.5548 5.08264
C 142.997 72.8419 1.74519
C 144.189 74.9762 4.48068
C 145.879 72.6186 4.07545
C 142.863 73.9412 2.50299
C 144.197 72.0204 2.14702
C 143.928 73.9815 3.48902
C 144.758 72.8581 3.32634
C 145.727 75.6199 6.28848
C 146.898 75.3361 7.06314
N 147.616 74.2686 6.83746
C 147.319 73.4543 5.95266
C 144.897 76.7999 6.49501
C 145.281 77.6804 7.51016
C 146.406 77.385 8.24341
C 147.186 76.2676 8.03745
C 143.749 77.0214 5.68042
C 143.413 76.1356 4.70629
C 143.686 70.6288 2.59692
H 142.984 65.5137 1.68959
H 143.023 64.9053 4.11786
H 143.853 67.7622 1.02229
H 144.302 67.1658 6.84498
H 145.627 69.9575 3.32585
H 145.322 69.542 1.61361
H 142.326 72.5851 0.930797
H 146.509 71.7494 3.90134
H 142.082 74.6936 2.39157
H 144.917 71.9254 1.32728
H 147.968 72.5768 5.82011
H 144.702 78.578 7.71483
H 146.696 78.0792 9.03549
H 148.06 76.1162 8.66992
H 143.137 77.9071 5.84215
H 142.532 76.3206 4.09253
H 142.905 70.277 1.91173
H 143.226 70.7012 3.58994
C 146.511 111.037 5.91275
C 146.51 111.495 4.53633
C 146.353 115.533 6.60513
C 146.397 111.94 6.97403
C 146.403 112.87 4.22729
C 146.301 114.527 7.45397
N 146.391 115.17 5.29232
C 146.341 113.3 6.61024
C 146.365 113.747 5.25843
C 146.575 109.634 6.19854
C 146.511 108.68 5.11748
C 146.476 109.163 3.77872
C 146.508 110.512 3.51189
C 146.711 109.163 7.51424
C 146.712 107.814 7.79071
C 146.543 106.885 6.76736
C 146.494 107.305 5.45254
C 146.199 111.475 8.38991
C 146.989 110.15 8.62246
N 146.322 113.295 2.9074
C 146.945 112.422 1.96257
C 146.452 110.971 2.05209
C 146.318 108.129 2.66634
C 146.963 106.831 3.05213
C 146.382 106.285 4.32393
O 146.867 107.413 9.05358
O 146.436 105.594 7.11418
C 145.199 114.075 2.49563
C 143.851 113.438 2.79289
H 146.367 116.578 6.90948
H 146.261 114.582 8.5403
H 146.521 115.801 4.47625
H 145.128 111.307 8.57188
H 146.521 112.251 9.09776
H 148.065 110.363 8.65247
H 146.728 109.71 9.59438
H 146.807 112.81 0.940326
H 148.029 112.412 2.18155
H 147.079 110.335 1.41492
H 145.423 110.893 1.67322
H 146.751 108.498 1.72539
H 145.246 107.982 2.45486
H 146.839 106.095 2.24071
H 148.049 106.968 3.1654
H 145.323 106.011 4.18348
H 146.903 105.354 4.6021
H 146.86 106.448 9.07396
H 146.167 105.031 6.38775
H 145.221 115.046 3.01263
H 145.272 114.283 1.41516
H 143.714 113.326 3.88137
H 143.785 112.439 2.33447
H 143.031 114.059 2.39326
C 23.1494 2.84817 30.0764
C 24.1167 3.11792 31.1148
C 26.4191 4.67737 27.3193
C 23.4102 3.22212 28.7145
C 25.3799 3.68182 30.8016
C 25.1464 4.24905 27.1884
C 26.8952 4.54812 28.7516
C 24.6949 3.79769 28.4949
C 25.6502 3.99157 29.4882
C 21.9033 2.26565 30.3467
C 21.5858 1.96149 31.7216
C 22.5712 2.17902 32.7335
C 23.7786 2.75001 32.4459
C 20.9335 2.09186 29.295
C 19.67 1.62318 29.6686
C 19.3764 1.35712 30.9941
C 20.2862 1.52202 32.0189
C 21.2963 2.39835 27.9383
C 22.5061 2.98461 27.636
C 23.0159 3.23245 26.2274
C 24.1235 4.29055 26.0643
C 26.4122 3.92083 31.8752
C 26.1825 3.04531 33.0884
C 24.7744 2.95294 33.5717
C 26.671 1.6124 32.7475
C 26.4192 5.39416 32.1938
C 24.3732 4.1486 34.3841
C 20.3251 2.04415 26.8249
H 27.0109 5.09923 26.5133
H 27.75 3.8601 28.8334
H 27.2112 5.51901 29.1586
H 22.3424 1.90542 33.7562
H 18.8955 1.47684 28.9205
H 18.3727 1.00217 31.2438
H 19.9947 1.32508 33.0491
H 23.3813 2.27432 25.8314
H 22.1715 3.50183 25.5785
H 24.6288 4.17608 25.0961
H 23.6709 5.29085 26.0461
H 27.39 3.67914 31.4289
H 26.7977 3.42827 33.9174
H 24.6717 2.07435 34.2384
H 27.7261 1.6183 32.4284
H 26.5961 0.953226 33.6287
H 26.07 1.18264 31.9292
H 27.013 5.60423 33.0976
H 26.864 5.97186 31.3668
H 25.3989 5.77538 32.3409
H 25.1435 4.39776 35.1353
H 24.1856 5.02671 33.7481
H 23.4509 3.9374 34.9442
H 19.8209 1.08965 27.0468
H 19.5581 2.83196 26.7307
H 20.8521 1.94203 25.8637
C 138.876 122.682 21.4716
N 139.355 121.672 20.8852
C 140.623 121.487 20.8778
N 141.484 122.263 21.4397
C 141.057 123.299 22.047
C 139.701 123.604 22.1065
C 137.411 122.787 21.4348
O 136.758 123.666 21.9328
C 142.044 124.227 22.7407
C 139.194 124.821 22.8318
N 140.801 127.542 23.4491
C 138.629 131.401 25.4161
C 140.921 128.546 24.2055
C 139.811 130.672 25.298
C 139.684 127.248 22.8728
C 137.435 131.058 24.7848
C 137.15 128.044 22.6123
C 136.485 129.129 23.1292
C 139.876 129.475 24.52
C 138.526 128.023 23.0774
C 137.391 129.898 23.9758
C 138.622 129.168 23.9036
C 142.17 128.936 24.9449
C 142.292 130.449 25.2197
C 141.102 131.024 26.0014
C 139.371 126.121 21.9415
C 138.127 126.393 21.0666
C 136.815 126.86 21.7333
H 141.023 120.596 20.3607
H 136.812 122.007 20.9222
H 142.023 125.237 22.298
H 141.827 124.304 23.8201
H 143.07 123.824 22.6236
H 139.76 124.958 23.7624
H 138.146 124.705 23.1282
H 138.637 132.298 26.038
H 136.546 131.675 24.9097
H 135.445 129.38 22.9398
H 142.218 128.378 25.8957
H 143.047 128.579 24.3777
H 142.399 130.983 24.2692
H 143.216 130.639 25.7803
H 141.189 132.118 26.1045
H 141.083 130.624 27.0274
H 140.234 125.952 21.2851
H 138.403 127.149 20.3192
H 137.913 125.492 20.4781
H 136.377 126.054 22.336
H 136.062 127.145 20.9835
C 48.065 99.9438 139.431
C 47.6695 101.051 140.13
C 47.6803 102.279 139.53
C 48.0886 102.384 138.222
C 48.489 101.273 137.517
C 48.474 100.051 138.129
C 49.1624 104.646 138.064
C 48.8359 105.688 138.928
C 56.8254 107.616 139.047
C 50.4489 104.321 137.603
C 56.0848 108.48 139.762
C 49.8451 106.531 139.353
C 56.0366 106.507 138.404
C 53.5531 108.722 140.273
C 52.3378 108.117 140.035
C 52.9925 105.086 137.814
C 54.6782 108.08 139.71
C 51.4781 105.123 138.034
C 54.6382 106.896 138.901
C 51.1318 106.206 138.877
C 52.3252 106.937 139.25
C 53.4342 106.297 138.647
C 49.7964 107.64 140.377
C 50.9725 108.665 140.376
O 47.5739 105.839 139.33
O 53.6179 109.85 140.968
C 56.4334 105.123 138.932
C 48.0478 103.755 137.525
C 58.3224 107.721 138.843
H 48.0522 98.9653 139.914
H 47.3419 100.953 141.166
H 47.3584 103.164 140.079
H 48.8042 101.358 136.478
H 48.7832 99.1613 137.579
H 50.6275 103.473 136.943
H 56.473 109.355 140.285
H 56.1039 106.538 137.31
H 53.431 104.152 138.188
H 53.2595 105.205 136.756
H 48.8492 108.188 140.28
H 49.7404 107.175 141.371
H 50.7441 109.472 139.666
H 51.0259 109.177 141.347
H 47.5503 106.583 139.933
H 54.5342 110.142 141.03
H 55.7669 104.354 138.518
H 56.3585 105.101 140.028
H 57.4609 104.878 138.631
H 48.1737 103.619 136.442
H 47.076 104.232 137.71
H 58.8239 106.845 139.29
H 58.7129 108.646 139.301
H 58.551 107.706 137.762
C 72.9283 31.8857 106.899
C 72.0454 31.1276 106.159
C 73.4268 27.2286 98.261
C 74.223 32.1001 106.438
C 74.7242 27.6571 98.016
C 72.6541 27.5288 99.397
C 72.424 30.5666 104.956
C 76.6793 29.0182 98.9982
C 77.1506 29.7923 100.049
N 75.8851 31.6712 104.556
C 76.6656 30.8036 102.358
C 72.837 28.7016 101.844
C 75.3622 28.4367 99.0077
C 74.668 31.5777 105.243
C 73.2413 28.2212 100.436
C 76.35 30.0392 101.202
C 75.7585 30.9612 103.362
C 73.7314 30.8003 104.533
C 74.0431 29.5577 102.24
C 74.5551 28.6521 100.182
C 74.4658 30.3705 103.286
C 75.0332 29.4477 101.253
C 75.5637 27.324 96.8281
C 76.5496 28.3648 96.5634
C 77.5075 28.6553 97.7937
C 78.5531 30.3808 100.114
C 78.5864 31.6034 100.993
C 78.0842 31.362 102.389
O 71.3693 27.1701 99.4384
C 72.7486 27.5736 102.817
C 71.4687 26.802 102.71
C 74.714 27.1237 95.6165
C 75.1605 32.9616 107.281
H 72.6101 32.3224 107.844
H 71.0306 30.9719 106.53
H 72.9196 26.62 97.5089
H 71.7275 29.9766 104.362
H 76.7261 32.2013 104.86
H 71.9138 29.2924 101.826
H 76.0923 26.3696 97.0401
H 76.0428 29.3025 96.2835
H 77.168 28.0935 95.6914
H 78.2047 29.4659 97.5462
H 78.1249 27.7741 98.0164
H 78.9056 30.6285 99.1
H 79.2509 29.6134 100.487
H 77.9961 32.4068 100.526
H 79.6158 31.9946 101.038
H 78.7393 30.6553 102.924
H 78.1035 32.2919 102.98
H 70.9799 27.5882 100.209
H 73.6119 26.8987 102.687
H 72.8607 27.9618 103.844
H 70.5982 27.4804 102.679
H 71.4664 26.1675 101.807
H 71.3418 26.132 103.58
H 75.345 26.9476 94.7246
H 74.0536 26.2461 95.7356
H 74.0925 28.0202 95.4285
H 74.7936 33.9988 107.305
H 76.1744 32.9522 106.857
H 75.1932 32.5837 108.314
C 136.569 20.9248 4.08339
C 136.659 21.9113 5.16144
C 132.95 19.5921 6.60036
C 135.598 19.9097 4.11299
C 135.761 21.8006 6.26091
C 133.534 19.0261 5.53755
N 133.599 20.7226 7.0165
C 134.702 19.9064 5.18254
C 134.739 20.8968 6.19759
C 137.484 20.9928 3.00922
C 138.416 21.9879 2.95897
C 138.37 23.0146 3.91095
C 137.58 22.9639 5.06505
C 135.532 18.8521 3.02439
C 136.048 19.4168 1.72647
C 137.438 19.9407 1.90141
C 135.903 22.7043 7.4531
C 137.226 23.2806 7.52513
C 137.687 23.9808 6.17996
C 131.754 18.9944 7.26164
C 131.056 17.9064 6.37902
C 132.083 16.9739 5.75039
C 133.063 17.782 4.83857
C 139.282 24.1644 3.55787
O 138.86 25.2672 3.43826
O 139.393 22.0345 2.04963
C 139.118 24.4949 6.41567
C 139.342 25.1949 7.71835
C 131.319 15.9655 4.88087
C 135.703 21.9674 8.737
C 132.879 16.1984 6.80627
C 136.74 25.1541 5.85808
H 133.256 21.3442 7.7777
H 136.122 17.9707 3.32717
H 134.497 18.4999 2.89961
H 136.029 18.6439 0.940628
H 135.383 20.2197 1.37308
H 137.792 20.3742 0.950929
H 138.136 19.1219 2.14353
H 135.136 23.5 7.37956
H 137.965 22.5005 7.78008
H 137.267 24.0121 8.34857
H 131.035 19.7884 7.533
H 132.043 18.5667 8.23896
H 130.462 18.4007 5.59988
H 130.345 17.3409 6.99772
H 132.555 18.0601 3.90397
H 133.92 17.1577 4.55105
H 140.337 23.9982 3.2618
H 139.419 21.2174 1.55472
H 139.401 25.1863 5.61398
H 139.82 23.6514 6.33255
H 138.62 26.0151 7.86502
H 139.294 24.4958 8.5692
H 140.351 25.6446 7.74374
H 132.015 15.2817 4.37318
H 130.72 16.4872 4.11841
H 130.632 15.3651 5.49743
H 134.649 21.7211 8.92468
H 136.288 21.0296 8.73916
H 136.025 22.5913 9.59116
H 133.541 15.4592 6.32837
H 132.2 15.6555 7.48146
H 133.509 16.8774 7.40073
H 136.645 25.8289 6.72156
H 137.117 25.7341 5.00363
H 135.741 24.7815 5.58805
C 33.2471 90.258 93.5688
C 33.9701 91.1809 94.474
C 29.1285 92.6518 94.1149
C 29.7466 93.534 94.9998
C 31.88 90.3251 93.3474
C 33.1859 92.1621 95.098
C 29.8135 91.6073 93.5701
C 31.0477 93.3873 95.3442
C 31.173 91.3888 93.9014
C 31.8257 92.3456 94.813
C 33.99 89.2035 92.9751
C 35.315 89.0349 93.2753
C 35.9729 89.9202 94.1354
C 35.3389 90.9763 94.6958
N 31.2227 89.3255 92.6296
C 32.0205 88.8666 91.5333
C 33.3453 88.2183 92.0181
C 33.7379 93.0549 96.1644
O 34.3545 94.0121 95.8267
C 33.3528 92.7343 97.5989
O 36.1554 91.7487 95.4311
O 29.0666 94.5582 95.5186
C 30.5061 88.4002 93.4451
C 31.3459 87.8841 90.5724
C 36.1666 87.9221 92.671
C 28.003 85.4735 95.4665
C 26.8391 86.0246 95.9318
C 26.4004 87.2266 95.4523
C 27.1412 87.8755 94.4954
C 28.3167 87.3207 94.0217
C 28.7466 86.1134 94.5143
C 29.1277 87.985 92.9071
C 26.6123 89.2077 93.972
H 28.0806 92.7975 93.8407
H 29.3117 90.9522 92.8615
H 31.4919 94.1068 96.0276
H 37.0391 89.7879 94.3327
H 32.3068 89.7745 90.9778
H 34.0142 88.0102 91.1716
H 33.1572 87.263 92.5261
H 33.0893 93.6568 98.1396
H 34.2074 92.2693 98.1168
H 32.5095 92.0232 97.6133
H 35.8734 92.642 95.3144
H 28.168 94.5441 95.1746
H 31.1291 87.5042 93.5905
H 30.3904 88.8448 94.4488
H 30.3824 88.3016 90.2357
H 31.9754 87.7267 89.6826
H 31.1725 86.9168 91.0656
H 37.1202 87.8262 93.2144
H 36.3957 88.1534 91.6186
H 35.6288 86.9632 92.7063
H 28.3361 84.5106 95.8551
H 26.2546 85.4991 96.6881
H 25.4705 87.6582 95.8214
H 29.6644 85.6598 94.1415
H 28.603 88.8663 92.5233
H 29.2487 87.2803 92.0761
H 27.3329 90.0103 94.1939
H 25.6469 89.4505 94.4421
H 26.4746 89.1587 92.8802
C 67.6952 89.7443 8.90519
C 68.0199 96.0417 5.25788
C 68.8024 89.2251 8.11839
C 69.1428 95.5156 4.44255
C 67.1914 91.0292 8.66157
C 67.4161 95.2477 6.21412
C 70.485 89.4439 6.3591
C 70.762 93.7007 3.81598
C 71.0568 90.2118 5.36145
C 71.2009 92.2944 4.13234
C 67.2325 93.1015 7.35442
C 69.3732 90.0133 7.12009
C 69.5831 94.218 4.67172
C 70.5998 91.5568 5.11027
C 67.7382 91.8179 7.64962
C 67.8471 93.9386 6.42096
C 68.8793 91.3209 6.86035
C 68.9983 93.4204 5.62802
C 69.4623 92.1133 5.88597
C 67.1476 88.9194 9.91789
C 67.6583 87.6581 10.1406
C 68.7123 87.1402 9.40667
C 69.2995 87.9068 8.39398
C 70.4057 87.3857 7.63934
C 70.9723 88.1298 6.66759
C 67.5677 97.367 5.05098
C 68.182 98.1287 4.0959
C 69.2434 97.6325 3.32166
C 69.7183 96.3649 3.48159
C 72.1164 89.5812 4.52397
O 73.1659 90.1127 4.34453
O 66.5655 97.8577 5.77041
C 65.9991 93.5886 8.09043
H 66.378 91.3932 9.2773
H 66.606 95.6697 6.80013
H 70.4975 93.7681 2.74712
H 71.6224 94.3812 3.92876
H 72.0215 91.875 3.56609
H 66.3199 89.2788 10.5237
H 67.2166 87.0416 10.9283
H 69.083 86.1397 9.62245
H 70.7917 86.3903 7.85968
H 71.8218 87.7227 6.12156
H 67.8488 99.1547 3.91828
H 69.6983 98.2852 2.5727
H 70.5443 96.0301 2.85812
H 71.9878 88.5819 4.06389
H 66.3702 98.7714 5.51962
H 65.4073 94.2664 7.45405
H 66.3013 94.124 9.00777
H 65.3468 92.7432 8.36249
C 4.29048 6.27559 125.771
C 3.73224 5.46254 124.714
C 2.32558 9.27324 117.779
C 4.51143 7.68033 125.586
S 2.8402 10.7459 118.563
C 2.36176 8.15669 118.534
C 3.47288 6.02062 123.414
C 3.63111 10.3413 121.229
C 4.35751 9.65317 123.735
C 3.00181 7.45856 120.957
C 3.14986 9.75565 120.08
C 2.8435 8.41622 119.892
C 4.27876 8.24099 124.352
C 3.82851 9.47684 122.299
C 3.77725 7.41062 123.334
C 3.51038 8.12029 122.118
C 3.00957 5.36641 122.23
C 2.78969 6.06538 121.048
C 4.57213 5.56876 126.952
C 4.2307 4.24084 127.111
C 3.61529 3.51766 126.096
C 3.37316 4.12509 124.883
C 2.59974 3.42741 123.77
C 2.97064 3.85944 122.367
C 4.84153 8.60548 126.729
O 5.83627 9.25295 126.735
O 3.89725 11.6505 121.337
C 5.81622 10.153 123.658
C 1.93701 6.79602 117.988
C 1.98057 3.27751 121.41
C 3.42322 10.6187 124.494
C 5.27634 6.20351 128.143
H 2.00305 9.31522 116.741
H 2.47158 5.52495 120.164
H 4.43858 3.74054 128.057
H 3.32417 2.48068 126.261
H 2.72528 2.33888 123.877
H 1.52646 3.6076 123.94
H 3.97801 3.48226 122.136
H 4.14187 8.76 127.574
H 3.71165 12.0434 120.487
H 6.44061 9.40816 123.145
H 5.86302 11.0929 123.087
H 6.21926 10.3169 124.666
H 2.78959 6.10064 118.024
H 1.59736 6.89544 116.946
H 1.11707 6.38947 118.6
H 2.30603 3.42019 120.366
H 1.88035 2.18912 121.57
H 0.986346 3.73916 121.546
H 3.40692 11.5746 123.962
H 2.39527 10.2314 124.516
H 3.77209 10.7504 125.525
H 5.6096 5.43067 128.855
H 4.59019 6.88033 128.676
H 6.1492 6.78391 127.802
C 85.181 77.3685 92.6036
C 85.1578 77.6796 93.95
C 84.2428 77.0742 94.7679
C 83.3529 76.1566 94.2549
C 83.3764 75.8515 92.9122
C 84.2875 76.4504 92.0798
O 82.4596 75.5404 95.0289
C 86.1549 78.0723 91.6815
C 88.4065 76.3974 93.7561
C 88.2722 71.2999 98.2035
C 89.3282 76.6372 94.8599
C 89.1375 72.2958 98.5952
C 87.5956 75.2378 93.638
C 87.5221 71.3735 97.0072
C 89.4405 75.6694 95.9225
C 89.3355 73.4722 97.8183
C 87.0065 72.9401 94.8628
C 87.6927 74.3018 94.6275
C 87.6189 72.4972 96.1903
C 88.5777 74.5595 95.7057
C 88.5163 73.4788 96.6349
C 90.2315 75.6352 97.0984
C 90.1834 74.5984 97.9978
C 88.3414 77.3784 92.7492
C 89.1192 78.501 92.8324
C 89.9793 78.6986 93.8836
C 90.0895 77.7856 94.886
C 86.6352 70.2632 96.5709
O 86.4548 69.3205 97.2728
C 85.494 73.1829 95.0105
C 89.9234 72.1339 99.8873
C 87.4761 77.252 91.5196
H 85.8569 78.4091 94.3564
H 84.2245 77.3275 95.829
H 82.6589 75.1343 92.5086
H 84.2943 76.2155 91.0162
H 82.5396 75.8557 95.9356
H 86.3874 79.0718 92.0681
H 85.6903 78.192 90.6936
H 88.1637 70.4109 98.8242
H 86.9131 75.0864 92.8067
H 87.2181 72.2283 94.0583
H 90.9083 76.4635 97.3031
H 90.8206 74.64 98.8803
H 89.0675 79.2508 92.0433
H 90.5895 79.602 93.9152
H 90.7827 77.9689 95.7064
H 86.1268 70.2653 95.5868
H 84.9738 72.2464 95.2533
H 85.3046 73.9109 95.8119
H 85.08 73.5786 94.0721
H 89.7415 72.9985 100.547
H 91.0035 72.1074 99.6667
H 89.6333 71.2055 100.405
H 87.246 76.2055 91.2949
H 88.0264 77.6461 90.6537
C 37.2062 89.4078 4.69354
C 37.3034 89.6589 6.1495
N 34.7726 93.4277 4.12097
C 34.8371 93.7017 5.38552
C 36.4684 90.2542 3.87099
C 36.6282 90.7544 6.69462
C 35.2459 92.3869 3.637
C 35.4148 92.8819 6.31929
C 35.9014 91.4059 4.41011
C 35.9881 91.6695 5.86303
C 37.8987 88.3074 4.15033
C 38.6623 87.4915 4.93619
C 38.7343 87.7502 6.31591
C 38.0896 88.7965 6.92474
C 36.3635 89.9728 2.37156
C 36.6166 88.5405 2.01783
C 37.8823 88.0618 2.6332
C 34.2812 94.9847 5.96545
O 34.1665 95.1521 7.13761
C 33.7417 95.939 4.9403
C 35.4663 87.6824 2.41755
C 39.6185 86.8433 7.16826
C 36.627 90.9692 8.19805
C 32.3959 97.8247 6.70855
C 33.3894 98.2033 5.82678
C 33.5963 99.5599 5.58138
C 32.7992 100.495 6.19777
C 31.8034 100.098 7.05741
C 31.6197 98.7649 7.31157
O 34.0979 97.3995 5.13622
C 34.6802 99.9358 4.58326
C 32.9861 101.989 5.93319
H 35.151 92.2553 2.55457
H 35.4558 93.1697 7.36986
H 39.22 86.6632 4.49936
H 38.214 88.9537 7.99239
H 37.079 90.6297 1.8453
H 35.3688 90.2841 2.00898
H 36.7229 88.4748 0.917305
H 38.0457 86.9891 2.42932
H 38.7507 88.5773 2.18557
H 34.1553 95.7072 3.9425
H 32.6407 95.9234 4.90003
H 35.6357 86.6293 2.11871
H 35.3059 87.7101 3.51156
H 34.5329 88.0169 1.92364
H 40.5921 87.3277 7.34565
H 39.798 85.8846 6.65757
H 39.1513 86.6635 8.14883
H 36.6599 90.0014 8.72319
H 37.5072 91.568 8.48819
H 35.7129 91.498 8.51125
H 32.2389 96.7724 6.93991
H 31.1689 100.839 7.54253
H 30.8381 98.4569 8.00976
H 34.6423 99.2555 3.71381
H 34.5712 100.977 4.24428
H 35.6714 99.7917 5.04629
H 34.0488 102.256 6.03763
H 32.6736 102.233 4.90498
H 32.3853 102.583 6.63754
C 43.5791 120.299 8.04784
C 43.1273 121.208 7.03802
C 38.816 120.209 9.26295
C 38.561 121.176 8.18847
C 42.5476 119.762 8.81418
N 41.9237 121.586 6.86481
C 40.1487 119.834 9.49343
C 39.6465 121.609 7.3851
C 41.2284 120.25 8.66311
C 40.9695 121.192 7.58794
C 45.011 120.017 8.11442
C 45.8475 120.583 7.05923
C 45.3348 121.463 6.05946
C 44.0088 121.756 6.10045
C 37.7245 119.748 10.0353
C 36.4884 120.244 9.7675
C 36.2591 121.192 8.78825
C 37.2677 121.654 8.02088
C 45.7449 119.317 9.07139
C 47.082 119.078 8.91015
C 47.8446 119.588 7.87948
C 47.2277 120.353 6.95978
C 40.4317 118.986 10.7028
O 40.6165 119.485 11.7647
O 46.1314 121.984 5.12684
O 42.6505 118.729 9.63416
O 37.8836 118.845 10.9976
O 45.2466 118.893 10.2507
C 39.4049 122.568 6.30566
C 40.3189 125.887 6.58835
C 40.6469 126.948 5.79182
C 40.0689 127.076 4.55902
C 39.1693 126.143 4.11771
C 38.8585 125.071 4.90397
C 39.4376 124.933 6.14187
O 39.2259 123.866 6.91349
H 43.5981 122.438 5.35166
H 35.6293 119.894 10.347
H 35.247 121.571 8.63598
H 37.0486 122.411 7.26974
H 47.6121 118.475 9.65159
H 48.918 119.392 7.8236
H 47.8074 120.795 6.14836
H 40.4788 117.88 10.6526
H 45.6391 122.565 4.53312
H 43.5662 118.489 9.76584
H 37.1001 118.774 11.5606
H 45.8966 118.419 10.785
H 40.2793 122.678 5.63578
H 38.4703 122.368 5.75451
H 40.7856 125.77 7.56869
H 41.3681 127.688 6.14092
H 40.3249 127.925 3.92571
H 38.7037 126.251 3.13763
H 38.1413 124.33 4.54792
N 134.603 52.6155 73.5552
C 134.233 53.8352 73.6687
C 132.904 54.2144 73.6723
C 131.966 53.2353 73.4875
C 132.395 51.936 73.3574
C 133.756 51.7092 73.4244
C 134.171 50.2725 73.3432
O 133.406 49.3957 73.0519
C 135.635 50.0189 73.7301
O 135.034 54.8102 73.7701
C 135.885 48.5673 74.0389
C 138.332 52.1027 78.9369
C 139.109 51.094 78.3413
C 137.225 53.688 74.517
C 138.051 52.6877 73.9392
C 137.711 53.0204 78.1358
C 139.295 50.9831 76.9848
C 137.149 53.8582 75.9029
C 138.75 51.8353 74.735
C 137.819 52.9532 76.7275
C 138.652 51.8905 76.1478
C 136.818 54.0959 78.7653
C 136.77 55.3095 77.9035
C 136.296 54.9616 76.5249
C 135.867 56.2862 78.5435
C 139.798 50.0906 79.2608
C 139.635 50.7886 74.0688
C 136.551 54.5636 73.5312
C 135.968 60.1175 76.6054
C 134.97 59.2429 76.3174
C 134.932 58.0102 76.929
C 135.917 57.6626 77.8372
C 136.935 58.5341 78.1525
C 136.947 59.7758 77.5201
C 138.044 60.7302 77.8615
O 138.115 61.7908 77.3294
H 132.617 55.2599 73.7773
H 130.901 53.4798 73.4461
H 131.688 51.1187 73.2173
H 136.3 50.3603 72.9215
H 135.905 50.6471 74.5946
H 136.925 48.4133 74.3698
H 135.702 47.9453 73.1464