37918
Lattice='150.0 0.0 0.0 0.0 150.0 0.0 0.0 0.0 150.0' Properties=species:S:1:pos:R:3 Timestep:=T pbc=F F F 1229=T Atoms.=T
C 51.5118 146.821 4.31638
C 52.0954 146.799 3.06305
C 51.3779 147.187 1.97216
C 50.0767 147.597 2.10697
C 49.4731 147.627 3.33406
C 50.1892 147.243 4.43447
C 52.3639 146.383 5.46053
O 51.966 146.363 6.58103
C 49.4913 147.294 5.7861
H 53.129 146.474 2.94466
H 51.8423 147.169 0.985117
H 49.5158 147.904 1.22387
H 48.4377 147.954 3.429
H 53.4122 146.056 5.31006
H 49.4817 146.288 6.23857
H 48.4631 147.67 5.67761
H 50.0551 147.947 6.47319
C 115.412 136.047 2.57857
C 114.308 136.649 3.16841
C 114.491 137.82 3.87788
C 115.753 138.406 3.9956
C 116.857 137.801 3.41578
C 116.666 136.634 2.71353
C 115.881 139.687 4.76325
O 116.863 139.952 5.37722
O 113.088 136.113 3.05515
O 118.068 138.347 3.50838
O 115.258 134.916 1.88827
C 113.284 138.465 4.54802
H 117.525 136.155 2.23823
H 115.053 140.421 4.82698
H 113.156 135.304 2.53392
H 118.728 137.767 3.11495
H 116.089 134.591 1.52033
H 112.437 137.76 4.55795
H 113.532 138.758 5.58101
H 112.983 139.368 3.9928
C 85.7078 4.08123 39.8489
C 84.9227 3.36512 40.7616
C 85.5277 2.70518 41.835
C 86.9145 2.72873 41.9624
C 87.6885 3.51414 41.1037
C 87.0877 4.16622 40.0257
C 85.0389 4.73271 38.649
O 84.6601 5.84971 38.7525
C 84.7981 3.95957 37.3865
C 83.4396 3.34894 40.5308
O 82.7963 2.37226 40.7362
C 85.4834 2.60202 37.3764
C 87.5831 1.9187 43.067
C 87.9159 4.98651 39.043
C 84.6552 1.98056 42.8509
C 89.1911 3.63676 41.3191
H 85.1236 4.55878 36.5186
H 83.712 3.83275 37.2368
H 82.9015 4.22079 40.1087
H 85.2992 2.08491 36.4201
H 85.099 1.96457 38.1892
H 86.5723 2.70897 37.5026
H 88.6022 1.62841 42.7705
H 87.6389 2.51652 43.9909
H 87.0088 1.00233 43.2725
H 88.8192 4.43144 38.7446
H 88.2278 5.93401 39.5118
H 87.3243 5.23407 38.1489
H 83.6858 2.49489 42.9525
H 84.447 0.95566 42.5017
H 85.1461 1.93933 43.8354
H 89.7086 2.7886 40.8416
H 89.5729 4.57111 40.8805
H 89.4267 3.63113 42.3946
C 144.111 8.36676 2.86236
C 144.855 7.68339 1.83871
C 141.889 4.40172 3.01167
C 142.999 7.81037 3.6057
C 144.467 6.38884 1.56101
C 141.679 5.56445 3.73015
N 142.878 4.51064 2.14341
C 142.657 6.48241 3.24779
C 143.412 5.76485 2.21808
C 144.499 9.68945 3.16406
C 145.614 10.2559 2.4523
C 146.221 9.40568 1.47815
N 145.852 8.25082 1.21987
C 143.791 10.4587 4.16088
C 144.192 11.785 4.39701
C 145.27 12.3134 3.71921
C 145.974 11.577 2.77217
C 142.726 9.8325 4.86467
C 142.343 8.56628 4.59744
C 140.635 5.75795 4.81308
C 147.141 12.2389 2.06028
H 141.322 3.48313 3.15141
H 145.036 5.82835 0.813245
H 143.213 3.74488 1.51988
H 147.078 9.81057 0.923365
H 143.666 12.3908 5.12992
H 145.572 13.3406 3.93254
H 142.206 10.382 5.63778
H 141.518 8.13387 5.15766
H 140.045 4.83741 4.94911
H 139.961 6.58218 4.5293
H 141.116 6.01398 5.77253
H 148.068 11.6657 2.23707
H 146.958 12.2507 0.972434
H 147.277 13.2738 2.41578
N 2.58585 1.61386 2.7342
C 2.30388 1.55664 3.98866
N 2.94143 2.15232 4.92522
C 3.93835 2.86889 4.62823
C 4.34176 3.03298 3.3266
C 3.59668 2.34666 2.4121
C 4.65534 3.53727 5.7404
O 5.73931 4.0407 5.64376
O 5.39731 3.7757 2.9075
C 11.8099 3.16836 2.50642
C 11.3504 4.17741 1.67375
C 9.9966 4.40376 1.51369
C 9.08755 3.60816 2.20653
C 9.5451 2.5626 3.01657
C 10.9024 2.34991 3.17059
C 7.63138 3.91485 2.05489
O 7.31053 4.69037 1.21645
C 6.69776 3.20591 2.8802
O 13.1211 3.00259 2.66599
O 11.3407 1.36869 3.965
H 1.43782 0.934962 4.2779
H 3.8673 2.41526 1.34911
H 4.20656 3.57962 6.75103
H 12.0594 4.82739 1.15817
H 9.64108 5.22159 0.884309
H 8.83223 1.91654 3.52925
H 6.5603 2.16182 2.53148
H 7.02228 3.19417 3.93946
H 13.6292 3.64184 2.14819
H 10.6105 0.887335 4.36855
C 117.915 17.4117 140.973
C 118.014 15.9828 141.125
C 116.392 17.1402 145.241
C 117.455 18.2679 141.985
C 117.63 15.4343 142.345
C 116.574 18.2211 144.42
N 116.725 15.988 144.665
C 117.083 17.6799 143.18
C 117.157 16.2285 143.406
C 118.322 17.9614 139.695
C 118.784 17.0039 138.708
C 118.796 15.635 139.08
N 118.437 15.2026 140.193
C 118.301 19.3039 139.353
C 118.709 19.696 138.115
C 119.152 18.7837 137.169
C 119.199 17.4431 137.437
C 117.718 13.969 142.544
O 117.406 13.4655 143.576
O 118.695 20.9813 137.761
C 116.303 19.6787 144.732
H 116.014 17.1968 146.262
H 117.388 19.3442 141.852
H 116.676 15.0281 145.081
H 119.148 14.9134 138.329
H 117.961 20.0481 140.07
H 119.469 19.1485 136.19
H 119.549 16.7365 136.686
H 118.076 13.2785 141.757
H 118.377 21.5141 138.497
H 115.57 20.0835 144.013
H 117.233 20.2622 144.618
H 115.919 19.7848 145.761
C 7.53298 81.7749 85.9759
C 8.22671 82.0813 84.6999
C 9.26754 85.8188 87.8893
C 10.012 86.071 86.6236
C 7.64843 82.607 87.0831
C 9.03767 83.1999 84.6293
C 8.48258 84.6893 88.0375
C 9.92094 85.185 85.5782
C 8.3972 83.7812 86.9953
C 9.1336 84.0578 85.7147
C 6.74841 80.6065 86.0206
C 6.64373 79.775 84.943
C 7.30734 80.0814 83.7574
C 8.04269 81.2173 83.5979
C 9.37458 86.7487 88.9384
C 10.1606 87.8573 88.765
C 10.8687 88.0961 87.5599
C 10.8041 87.2298 86.502
C 6.91367 82.254 88.3659
C 6.67847 80.769 88.4721
C 5.9469 80.2557 87.2726
O 8.50984 81.463 82.378
C 10.2647 88.8527 89.9157
C 11.7327 89.3448 87.4105
H 9.59416 83.4249 83.7246
H 7.94391 84.5305 88.9665
H 10.4562 85.3756 84.6507
H 6.02596 78.8777 84.9969
H 7.19376 79.4042 82.9067
H 8.84252 86.5894 89.8741
H 11.3535 87.432 85.5849
H 5.95736 82.802 88.3959
H 7.49067 82.6054 89.2357
H 7.64003 80.2437 88.5771
H 6.10896 80.5424 89.3871
H 5.79487 79.1647 87.333
H 4.93919 80.6977 87.2029
H 8.8463 82.3608 82.2912
H 9.92517 89.8491 89.5909
H 9.65289 88.5262 90.7707
H 11.3125 88.9515 90.2415
H 12.2132 89.3693 86.4204
H 12.5125 89.3648 88.188
H 11.1186 90.2509 87.533
C 18.0375 129.217 67.2484
C 17.7342 130.438 68.0195
C 15.278 126.618 70.2551
C 14.9613 127.877 71.0114
C 17.4649 127.998 67.5967
C 16.8743 130.343 69.113
C 16.1202 126.67 69.1304
C 15.49 129.084 70.6211
C 16.6424 127.896 68.725
C 16.3277 129.127 69.5095
C 18.9614 129.342 66.1863
C 19.5529 130.539 65.8827
C 19.2446 131.687 66.6238
C 18.3582 131.646 67.6635
C 14.6896 125.473 70.7579
N 13.955 125.472 71.7637
C 13.6656 126.523 72.4334
C 14.111 127.739 72.1338
C 17.7986 126.768 66.7712
C 18.228 127.145 65.3749
C 19.3783 128.103 65.3999
C 16.4874 131.61 69.8209
O 16.942 131.921 70.8689
C 15.4323 132.445 69.111
O 14.9686 124.359 70.0865
O 12.8795 126.442 73.5054
H 16.3519 125.752 68.5974
H 15.2639 129.987 71.184
H 20.2848 130.599 65.0754
H 19.7425 132.626 66.375
H 18.1699 132.552 68.2376
H 13.8424 128.614 72.7289
H 18.5903 126.195 67.2804
H 16.9221 126.102 66.7281
H 18.5025 126.241 64.811
H 17.3816 127.594 64.8335
H 19.6871 128.387 64.3798
H 20.2667 127.648 65.8695
H 15.1517 131.968 68.1573
H 15.815 133.46 68.9196
H 14.5391 132.541 69.7482
H 14.4893 123.642 70.5386
H 12.7305 127.301 73.9303
C 89.2486 142.91 9.42459
C 88.4728 142.924 8.17303
C 93.052 141.451 6.83716
C 92.2662 141.552 5.67489
C 90.5408 142.374 9.39606
C 89.0506 142.603 6.96548
C 92.5157 141.719 8.06269
C 90.9586 141.936 5.69033
C 91.1672 142.106 8.17261
C 90.3739 142.229 6.92843
C 88.6193 143.439 10.5867
C 87.2711 143.777 10.5791
C 86.5118 143.688 9.39467
C 87.1018 143.279 8.21694
C 89.4434 143.788 11.7899
O 89.0565 143.573 12.8921
C 85.0552 144.158 9.38722
O 84.1912 143.405 9.68028
C 84.8248 145.588 9.02299
C 83.3746 145.837 8.63174
C 86.5936 144.306 11.8367
C 92.9119 141.261 4.32148
C 86.2689 143.214 6.94688
C 91.2733 141.993 10.6719
H 94.0987 141.157 6.7565
H 88.4802 142.649 6.04309
H 93.1475 141.642 8.94537
H 90.3879 142.015 4.76776
H 90.425 144.291 11.6987
H 85.5037 145.884 8.20378
H 85.1117 146.245 9.86374
H 83.0917 145.197 7.78103
H 82.7043 145.595 9.47219
H 83.2223 146.89 8.34798
H 86.602 143.529 12.6195
H 85.5485 144.588 11.6375
H 87.1458 145.173 12.233
H 92.1626 140.872 3.61509
H 93.7353 140.539 4.43348
H 93.3248 142.19 3.89777
H 86.6034 143.988 6.23576
H 86.3909 142.227 6.46992
H 85.202 143.364 7.17442
H 91.9484 142.807 10.9847
H 90.5515 141.773 11.4758
H 91.8814 141.088 10.5058
C 3.20691 17.6124 7.47158
C 3.20579 18.9055 8.14275
C 5.62465 19.607 3.80485
C 5.58896 20.9093 4.51433
C 3.8285 17.4226 6.20367
C 3.80948 19.9946 7.54762
C 5.05413 18.4762 4.36477
C 4.98407 21.0016 5.74742
C 4.44808 18.5527 5.57984
C 4.41255 19.8496 6.29815
C 2.58335 16.5479 8.13028
C 1.97754 16.7103 9.42899
C 1.97704 18.0081 10.0403
C 2.57698 19.0504 9.42726
C 6.24178 19.5358 2.54733
C 6.80059 20.6506 1.99004
C 6.78032 21.8911 2.64087
C 6.19094 22.0222 3.87039
C 2.55703 15.2338 7.51984
C 1.98458 14.1534 8.22056
C 1.43385 14.362 9.4681
C 1.42124 15.6036 10.0748
C 3.18635 15.0967 6.25083
C 3.80815 16.1254 5.62743
S 3.16192 13.4584 5.50393
C 6.19317 23.3934 4.52922
H 3.80642 20.9591 8.04876
H 5.09343 17.5381 3.81791
H 4.94501 21.9474 6.28099
H 1.51354 18.1435 11.0166
H 2.59477 20.0185 9.92419
H 6.2729 18.5927 2.00385
H 7.2721 20.5778 1.00788
H 7.23486 22.7566 2.15661
H 1.98775 13.152 7.7953
H 0.991938 13.5129 9.99639
H 0.978432 15.7129 11.0625
H 4.28124 15.9563 4.66572
H 1.8224 13.3522 5.37856
H 6.69971 24.1328 3.88794
H 5.157 23.7241 4.71039
H 6.70663 23.3428 5.50374
C 31.917 94.3365 42.3759
C 31.8166 95.7203 42.0013
C 35.3982 96.0514 44.9488
C 32.8486 93.8907 43.3591
C 32.6007 96.7128 42.6142
C 34.9083 94.8283 44.7119
C 34.5889 97.1282 44.2517
C 33.7217 94.9091 43.8555
C 33.5505 96.2587 43.5089
C 31.0605 93.38 41.7785
C 30.0886 93.7625 40.8044
C 30.0155 95.138 40.4181
C 30.8818 96.124 40.9774
C 31.1288 91.9862 42.1442
C 30.2229 91.0839 41.5128
C 29.314 91.508 40.5921
C 29.1866 92.8394 40.1801
C 32.0415 91.5976 43.1337
C 32.83 92.5244 43.7358
C 29.0485 95.495 39.4199
C 28.9944 96.8369 38.9967
C 29.8713 97.7675 39.5153
C 30.8179 97.4407 40.4887
N 28.3236 93.2377 39.2956
C 28.2375 94.4222 38.9373
C 32.3447 98.1781 42.3533
C 31.8354 98.4492 40.9569
C 33.6445 92.0444 44.8942
O 33.9921 90.9096 44.9604
C 31.3256 98.628 43.3523
C 33.0249 98.3704 39.9668
H 36.2779 96.25 45.5535
H 35.355 93.9064 45.081
H 35.2044 97.7162 43.555
H 34.1133 97.814 44.9683
H 30.2556 90.0289 41.7806
H 28.6464 90.7664 40.1477
H 32.0801 90.5593 43.4581
H 28.2715 97.1369 38.2408
H 29.8317 98.7921 39.1422
H 27.4829 94.679 38.1819
H 33.2767 98.736 42.524
H 31.3982 99.4561 40.8995
H 33.8771 92.6887 45.7639
H 31.1183 99.707 43.2444
H 30.3801 98.0743 43.2226
H 31.6845 98.4559 44.3818
H 33.7981 99.1069 40.2329
H 33.4709 97.3653 39.9833
H 32.6852 98.5864 38.9431
C 9.66001 15.9732 1.51985
C 10.5767 14.9505 1.42852
C 10.2071 13.7221 1.92558
N 9.08575 13.4949 2.46356
C 8.23897 14.4219 2.56532
C 8.43969 15.7044 2.10975
C 11.1979 12.622 1.83894
O 12.2966 12.7794 1.38492
C 6.89299 14.2018 3.25578
C 3.67745 9.47359 3.95476
C 4.69352 10.1632 4.72129
C 3.46684 13.5059 1.68003
C 2.9661 10.0673 2.86612
C 5.05833 11.4837 4.3801
C 2.83175 12.3265 1.59433
C 4.51269 13.5017 2.76627
C 3.37381 11.4064 2.58081
C 4.39706 12.0498 3.31415
C 3.37781 8.14692 4.33402
C 4.08983 7.57713 5.4392
N 4.97961 8.26752 6.09794
C 5.26485 9.43555 5.79845
C 2.34962 7.42183 3.59276
C 2.0787 6.12322 3.9988
C 2.7544 5.61122 5.05751
C 3.73035 6.28623 5.75246
C 1.66376 8.06361 2.51753
C 1.96378 9.34559 2.17881
C 5.89922 13.7727 2.13632
H 9.89128 16.9714 1.14171
H 11.5566 15.1132 0.978847
H 7.68575 16.4841 2.22263
H 10.9689 11.6065 2.2159
H 6.99077 13.4004 4.00101
H 6.54868 15.1147 3.76452
H 3.23772 14.3654 1.05814
H 5.8013 12.0273 4.9619
H 2.02536 12.0937 0.899318
H 4.29488 14.252 3.5271
H 6.0308 9.95991 6.39214
H 1.33366 5.52361 3.47939
H 2.50302 4.59574 5.35678
H 4.2463 5.78945 6.57241
H 0.897026 7.51954 1.96902
H 1.42985 9.82119 1.35815
H 5.81962 14.5674 1.38562
H 6.25894 12.8724 1.62475
C 7.68037 19.33 14.5508
C 9.10966 19.5551 14.4445
C 8.4336 21.1903 18.6278
C 6.95624 19.7344 15.6779
C 9.8133 20.2048 15.4821
C 7.31742 20.7828 18.0647
N 9.53182 21.1556 17.812
C 7.71543 20.3431 16.6953
C 9.11304 20.5864 16.5817
C 6.97333 18.7357 13.4566
C 7.66963 18.485 12.2164
C 9.06817 18.737 12.1347
C 9.75187 19.2238 13.2219
C 5.61723 18.3861 13.5749
C 4.92651 17.8745 12.5003
C 5.55579 17.7442 11.2655
C 6.9086 17.9894 11.1331
C 5.45415 19.6861 15.7229
C 4.9442 18.4475 14.9253
N 11.1724 20.4477 15.3641
C 11.8751 19.5882 14.4619
C 11.2492 19.5055 13.0642
C 9.74053 18.537 10.7772
C 9.06947 17.4451 10.0022
C 7.61273 17.7488 9.80192
O 3.65413 17.5066 12.6668
O 4.80186 17.3589 10.225
C 11.6354 21.7902 15.5238
C 10.9293 22.7987 14.6289
H 8.49993 21.5243 19.6601
H 6.32976 20.7289 18.5184
H 10.5126 21.2081 18.1496
H 5.0504 20.6064 15.2781
H 5.10035 19.6541 16.7625
H 5.16606 17.5283 15.4825
H 3.85349 18.487 14.8035
H 12.9322 19.8926 14.3908
H 11.8472 18.5673 14.8782
H 11.7423 18.7105 12.4897
H 11.4036 20.4443 12.5144
H 10.8107 18.3159 10.895
H 9.6949 19.4766 10.2114
H 9.56012 17.3186 9.02254
H 9.19158 16.485 10.5229
H 7.48107 18.63 9.15107
H 7.13401 16.9092 9.2835
H 3.35596 17.1345 11.8311
H 5.22871 17.4871 9.37712
H 11.4801 22.1082 16.5646
H 12.7205 21.831 15.3341
H 9.85494 22.8471 14.8748
H 11.0265 22.5061 13.572
H 11.3649 23.8041 14.7525
C 146.437 5.77018 20.7233
C 146.237 7.15244 20.3627
C 146.315 7.42623 25.0643
C 146.517 5.35982 22.1006
C 146.097 8.14304 21.3674
C 146.515 6.231 24.4741
C 146.055 8.50726 24.0341
C 146.392 6.42545 23.0365
C 146.17 7.75322 22.6864
C 146.551 4.75522 19.7653
C 146.498 5.13223 18.3724
C 146.287 6.49547 18.0123
C 146.149 7.46078 18.9751
C 146.718 3.38134 20.1701
C 146.866 2.4355 19.1515
C 146.833 2.81584 17.8217
C 146.655 4.12035 17.4107
C 146.713 3.03354 21.5642
C 146.65 4.00822 22.5357
C 146.552 3.72748 24.0253
C 146.971 4.86815 24.9702
C 145.887 9.58998 21.0301
C 145.286 9.77592 19.6176
C 145.892 8.87485 18.516
C 143.792 9.40734 19.7224
C 147.196 10.2979 21.17
C 147.18 9.42757 17.9975
C 146.772 1.56805 21.9614
H 146.383 7.60164 26.1329
H 145.058 8.95464 24.16
H 146.794 9.31698 24.1115
H 146.229 6.76285 16.9599
H 147.015 1.3866 19.3932
H 146.954 2.04329 17.0579
H 146.64 4.36476 16.3507
H 145.513 3.44434 24.2498
H 147.144 2.83418 24.2658
H 146.592 4.69307 25.9855
H 148.066 4.88091 25.0623
H 145.2 10.0174 21.7772
H 145.368 10.8283 19.3196
H 145.19 8.82752 17.6692
H 143.283 10.0334 20.4733
H 143.283 9.57547 18.76
H 143.679 8.35054 20.0076
H 147.14 11.3143 20.7436
H 147.476 10.3963 22.232
H 148.003 9.7377 20.6743
H 147.084 10.5052 17.7789
H 147.995 9.27841 18.7204
H 147.476 8.92026 17.0636
H 146.167 0.956107 21.2733
H 147.816 1.21112 21.9215
H 146.385 1.41865 22.9813
C 101.584 2.91365 2.23897
N 100.392 2.80819 2.63908
C 99.8618 3.76502 3.30655
N 100.454 4.86777 3.61332
C 101.662 5.02876 3.23394
C 102.339 4.04906 2.51446
C 102.094 1.77291 1.46678
O 103.198 1.69074 0.995703
C 102.401 6.32081 3.54949
C 103.76 4.23895 2.05658
N 105.993 6.16278 3.35554
C 110.594 6.12401 1.8319
C 107.044 6.83558 3.1609
C 109.556 6.88767 2.36345
C 105.921 4.90662 3.06696
C 110.487 4.7684 1.52718
C 107.327 2.86867 2.07077
C 108.628 2.7935 1.63663
C 108.268 6.32252 2.61844
C 107.011 4.22086 2.49683
C 109.258 4.1048 1.75335
C 108.214 4.93352 2.28097
C 107.202 8.3062 3.4251
C 108.645 8.73217 3.7653
C 109.658 8.36411 2.67054
C 104.775 3.96204 3.24206
C 105.217 2.48253 3.28191
C 106.143 1.93378 2.17384
H 98.8162 3.64952 3.64446
H 101.443 0.898115 1.26368
H 103.283 6.1317 4.18416
H 102.731 6.82602 2.62502
H 101.727 7.00787 4.09634
H 103.901 5.27018 1.70889
H 103.995 3.59535 1.20261
H 111.549 6.61549 1.6426
H 111.338 4.2258 1.11847
H 109.116 1.89868 1.25972
H 106.843 8.87178 2.54825
H 106.515 8.59959 4.23767
H 108.947 8.27336 4.7132
H 108.672 9.81632 3.93071
H 110.685 8.61555 2.97977
H 109.466 8.94451 1.75408
H 104.256 4.20093 4.17837
H 105.718 2.30886 4.24369
H 104.32 1.85232 3.3241
H 105.617 1.88506 1.21113
H 106.482 0.912349 2.40178
C 44.9759 75.6378 9.69744
C 45.3822 76.8613 10.1555
C 46.1984 77.6424 9.38595
C 46.5986 77.1849 8.15296
C 46.1951 75.9535 7.69228
C 45.3796 75.1824 8.47167
C 48.884 78.1583 7.824
C 49.2962 79.324 8.46266
C 56.6226 75.7361 9.4934
C 49.6579 77.0045 7.61726
C 56.6054 76.9993 9.95192
C 50.6036 79.4041 8.90471
C 55.314 75.271 8.91205
C 54.8289 78.8879 10.0305
C 53.5165 79.1547 9.70432
C 52.0847 76.0111 8.08984
C 55.2773 77.5786 9.74604
C 50.9534 77.0422 8.07297
C 54.4939 76.5503 9.1262
C 51.3791 78.2477 8.68217
C 52.7553 78.1164 9.11349
C 53.1939 76.8111 8.78717
C 51.2692 80.4783 9.7309
C 52.8289 80.4987 9.74808
O 48.4271 80.3192 8.64126
O 55.5972 79.8352 10.5514
C 54.7095 74.1017 9.69868
C 47.4683 78.0864 7.26009
C 57.8347 74.8279 9.50707
H 44.3217 75.0194 10.3143
H 45.0515 77.2149 11.1326
H 46.5196 78.6219 9.74062
H 46.5093 75.5973 6.71137
H 45.0466 74.207 8.1148
H 49.2531 76.1195 7.12671
H 57.4572 77.5163 10.3926
H 55.4054 75.0171 7.84849
H 51.8062 75.1166 8.6613
H 52.3813 75.7068 7.07753
H 50.905 81.4648 9.41335
H 50.9103 80.3768 10.7645
H 53.1892 81.0922 8.89621
H 53.1884 81.0559 10.625
H 48.879 81.0197 9.11164
H 56.4826 79.4881 10.7066
H 53.7109 73.8602 9.30995
H 54.62 74.3673 10.761
H 55.3375 73.2062 9.5978
H 47.4953 77.6773 6.24066
H 47.0364 79.0958 7.2249
H 57.6411 73.9535 10.1538
H 58.7222 75.3701 9.87473
H 58.0206 74.4404 8.48918
C 13.2327 3.31949 14.6333
C 12.4666 4.21391 15.3425
C 4.06124 6.7237 13.747
C 12.6943 2.64927 13.5464
C 3.8216 6.00707 12.5835
C 5.26267 6.74864 14.4793
C 11.1589 4.47098 14.988
C 4.86571 4.32251 10.94
C 5.97652 3.5666 10.5931
N 10.6497 2.35102 12.0543
C 8.37063 2.86039 11.1927
C 7.67631 5.50462 14.6394
C 4.85017 5.16172 12.1095
C 11.3952 2.84323 13.135
C 6.2803 5.89123 14.113
C 7.15948 3.57747 11.3882
C 9.4044 2.97988 12.0719
C 10.6526 3.76622 13.8965
C 8.1844 4.58599 13.5244
C 6.02946 5.16098 12.938
C 9.31438 3.84353 13.1982
C 7.16602 4.39338 12.5803
C 2.54966 5.98 11.8032
C 2.78807 5.66256 10.4002
C 3.56642 4.29917 10.1783
C 6.01992 2.61645 9.40411
C 7.43375 2.40997 8.92934
C 8.36763 1.9132 9.99777
O 5.41024 7.62338 15.475
C 7.59635 4.69159 15.8878
C 7.36143 5.51474 17.1175
C 1.83378 7.28765 11.8998
C 13.6014 1.69669 12.7697
H 14.2681 3.14591 14.9208
H 12.9054 4.73985 16.1921
H 3.26764 7.35648 14.1483
H 10.5604 5.20363 15.5273
H 11.0227 1.78316 11.2679
H 8.32323 6.38024 14.7698
H 1.89719 5.19667 12.2442
H 3.35343 6.47279 9.9237
H 1.83556 5.6235 9.84596
H 3.75005 4.14027 9.10858
H 2.95277 3.45287 10.5149
H 5.39932 3.01213 8.58689
H 5.55909 1.65596 9.68663
H 7.81277 3.3531 8.51393
H 7.43902 1.70957 8.07875
H 8.07136 0.907082 10.3368
H 9.39211 1.80315 9.60765
H 6.31826 7.58112 15.7826
H 6.80812 3.92612 15.7855
H 8.52478 4.10715 16.0079
H 8.04512 6.38131 17.1532
H 6.31885 5.87475 17.1565
H 7.53285 4.91459 18.0293
H 0.927813 7.28442 11.2648
H 1.51149 7.48948 12.9368
H 2.48268 8.11503 11.5584
H 14.4109 2.26591 12.2877
H 13.0281 1.1785 11.9881
H 14.0508 0.961209 13.4527
C 117.055 3.1207 136.986
C 115.855 3.35628 136.18
C 113.857 2.67428 140.272
C 116.961 2.92496 138.374
C 114.593 3.41927 136.836
C 115.192 2.7201 140.348
N 113.397 2.85426 138.996
C 115.686 2.92316 138.94
C 114.513 3.08634 138.158
C 118.319 3.10581 136.356
C 118.419 3.27148 135.006
C 117.249 3.32331 134.237
C 115.97 3.46193 134.788
C 118.204 2.72983 139.225
C 119.293 2.08698 138.405
C 119.584 2.90923 137.19
C 113.356 3.8004 136.073
C 113.684 4.48675 134.845
C 114.739 3.7161 133.947
C 113.002 2.49841 141.482
C 113.809 2.00004 142.727
C 115.116 2.76919 142.871
C 116.004 2.55339 141.602
C 117.531 3.22201 132.758
O 117.038 2.36465 132.102
O 119.582 3.39738 134.362
C 115.008 4.59957 132.715
C 113.787 5.18391 132.078
C 115.853 2.19941 144.091
C 112.482 4.72953 136.852
C 114.885 4.26755 143.097
C 114.158 2.35479 133.516
H 112.397 2.77054 138.72
H 118.541 3.7031 139.621
H 117.971 2.10536 140.1
H 120.205 1.96602 139.012
H 118.993 1.06878 138.113
H 120.366 2.41666 136.588
H 119.994 3.89324 137.473
H 112.784 2.87669 135.858
H 114.089 5.48829 135.069
H 112.765 4.65582 134.261
H 112.17 1.80546 141.261
H 112.488 3.44733 141.717
H 114.008 0.925766 142.623
H 113.191 2.11506 143.628
H 116.438 1.54321 141.62
H 116.851 3.25279 141.604
H 118.31 3.84166 132.269
H 120.298 3.49753 134.987
H 115.54 4.02256 131.952
H 115.694 5.41155 132.998
H 113.049 4.40228 131.834
H 113.32 5.9495 132.72
H 114.052 5.68658 131.131
H 116.827 2.69169 144.225
H 116.024 1.11822 143.97
H 115.259 2.34823 145.006
H 111.947 4.21826 137.664
H 113.078 5.55482 137.283
H 111.699 5.16369 136.202
H 115.838 4.7807 143.298
H 114.22 4.43395 143.959
H 114.432 4.73188 142.209
H 113.165 2.48194 133.06
H 114.818 1.86728 132.785
H 114.067 1.68347 134.383
C 83.9919 88.8374 29.2849
C 84.6053 87.4943 29.4283
C 86.2474 90.4466 33.1826
C 86.815 89.1913 33.3836
C 84.1583 89.8507 30.218
C 85.4102 87.2721 30.5545
C 85.3846 90.6673 32.153
C 86.5464 88.1514 32.5607
C 85.0421 89.6191 31.2678
C 85.6857 88.3035 31.4617
C 83.1303 89.0679 28.1841
C 82.8401 88.0546 27.3175
C 83.4165 86.796 27.4745
C 84.2984 86.5242 28.4669
N 83.4336 91.0404 30.1318
C 83.282 91.4591 28.7719
C 82.4832 90.4188 27.9409
C 85.9508 85.9249 30.9511
O 86.9941 85.5258 30.5583
C 85.1911 85.197 32.0485
O 84.8268 85.2955 28.4027
O 87.6534 88.9868 34.4019
C 82.3382 91.1272 31.0408
C 82.6381 92.8302 28.5491
C 81.9213 88.2384 26.1121
C 79.0334 91.9213 33.7519
C 79.4632 92.1767 35.0266
C 80.7663 92.5117 35.2647
C 81.6396 92.5933 34.2082
C 81.208 92.3408 32.9182
C 79.8969 91.9997 32.6948
C 82.139 92.4946 31.7137
C 83.0832 92.9856 34.5094
H 86.4985 91.2737 33.8511
H 84.9748 91.6641 32.0058
H 87.034 87.1958 32.7466
H 83.1919 86.0121 26.748
H 84.301 91.4704 28.3529
H 82.5045 90.672 26.8719
H 81.4275 90.397 28.2434
H 85.9027 84.7277 32.7467
H 84.5663 84.4016 31.6114
H 84.5344 85.8999 32.5877
H 85.7021 85.2918 28.7795
H 87.7847 89.8123 34.8776
H 81.4176 90.8477 30.5056
H 82.4752 90.3544 31.8164
H 83.1627 93.5882 29.1543
H 82.7245 93.127 27.4919
H 81.5749 92.8126 28.8292
H 81.6394 87.2619 25.6879
H 82.4387 88.8135 25.3278
H 81.0119 88.7876 26.3979
H 77.9887 91.6611 33.5778
H 78.7601 92.1167 35.8584
H 81.1027 92.7189 36.2803
H 79.5403 91.8082 31.6833
H 83.1084 92.8973 32.0256
H 81.6978 93.202 31.0016
H 83.7626 92.1719 34.2112
H 83.2116 93.1869 35.584
H 83.3566 93.8893 33.9422
C 132.213 17.0286 8.83489
C 126.784 13.0004 6.14864
C 131.77 16.7277 10.1866
C 126.311 12.7103 7.52621
C 131.508 16.5315 7.73097
C 127.869 13.8291 5.93965
C 130.236 15.6684 11.7729
C 126.498 12.9155 10.0227
C 129.118 14.8856 11.9951
C 127.305 13.5309 11.1352
C 129.608 15.2767 6.83363
C 130.639 15.9386 10.3922
C 126.986 13.2765 8.59984
C 128.384 14.327 10.8862
C 130.36 15.763 7.92234
C 128.524 14.4154 7.01955
C 129.905 15.4321 9.28595
C 128.064 14.108 8.40431
C 128.788 14.6417 9.4915
C 133.364 17.8381 8.67018
C 134.034 18.3266 9.77208
C 133.641 18.0482 11.0699
C 132.511 17.2552 11.2979
C 132.088 16.971 12.6406
C 131.002 16.2005 12.8613
C 126.111 12.4249 5.04429
C 125.04 11.609 5.28333
C 124.599 11.3248 6.58565
C 125.209 11.8525 7.68354
C 128.673 14.6839 13.4037
O 128.454 13.5974 13.8374
O 126.515 12.6738 3.80374
C 130.0 15.6894 5.42782
H 131.871 16.7572 6.73599
H 128.198 14.0074 4.92093
H 125.442 13.2091 10.1354
H 126.489 11.8195 10.1475
H 127.005 13.3186 12.1511
H 133.716 18.0862 7.67239
H 134.909 18.9633 9.61956
H 134.207 18.4521 11.9079
H 132.651 17.3821 13.4776
H 130.709 15.9799 13.8856
H 124.501 11.1591 4.44585
H 123.739 10.6646 6.71755
H 124.829 11.6016 8.67118
H 128.565 15.5252 14.116
H 125.948 12.2287 3.15792
H 129.114 15.7318 4.77305
H 130.724 14.9647 5.01446
H 130.453 16.6938 5.4282
C 37.807 83.7198 123.189
C 38.6444 83.9774 124.339
C 41.8394 91.3258 124.711
C 37.6267 84.708 122.164
S 41.1021 91.654 123.162
C 41.6127 90.102 125.226
C 39.2364 85.2716 124.533
C 39.6158 89.4791 122.17
C 38.2464 87.261 121.488
C 40.3404 87.9278 124.591
C 40.4031 89.9544 123.196
C 40.7721 89.2804 124.352
C 38.1809 85.9573 122.316
C 39.1496 88.1804 122.332
C 38.9468 86.1831 123.473
C 39.5245 87.4927 123.499
C 40.0158 85.7374 125.637
C 40.5427 87.0236 125.657
C 37.2219 82.4429 123.186
C 37.5256 81.491 124.138
C 38.4081 81.7535 125.179
C 38.9651 83.0085 125.291
C 40.0259 83.3286 126.337
C 40.045 84.7696 126.801
C 36.9699 84.3898 120.846
O 36.0069 84.9775 120.477
O 39.2932 90.1903 121.08
C 36.8553 87.9196 121.368
C 42.1943 89.6783 126.572
C 41.2688 84.9865 127.632
C 38.8881 87.0203 120.106
C 36.2067 82.0062 122.139
H 42.4386 92.1007 125.184
H 41.1057 87.3508 126.523
H 37.0722 80.5014 124.076
H 38.658 80.9714 125.896
H 39.8966 82.653 127.198
H 41.0088 83.0628 125.917
H 39.1468 84.9555 127.408
H 37.3949 83.6424 120.148
H 39.719 91.0409 121.166
H 36.4133 88.0373 122.368
H 36.949 88.9129 120.906
H 36.1872 87.2983 120.757
H 41.3799 89.4418 127.273
H 42.8072 90.4896 126.994
H 42.8234 88.785 126.441
H 41.2426 85.9689 128.133
H 41.3415 84.2204 128.425
H 42.1799 84.9235 127.012
H 39.0122 87.9772 119.579
H 39.8786 86.56 120.231
H 38.256 86.3563 119.501
H 35.701 81.0778 122.451
H 36.709 81.8108 121.178
H 35.4541 82.7973 121.988
C 83.2089 3.62416 32.9146
C 82.8601 4.939 33.1597
C 83.2404 5.91402 32.278
C 83.9563 5.58657 31.148
C 84.3062 4.2763 30.9092
C 83.9353 3.28776 31.7853
O 84.3097 6.50782 30.2517
C 82.8395 2.54577 33.9119
C 79.6542 3.56915 32.9239
C 76.8667 7.10924 27.8778
C 78.5164 4.34968 33.3946
C 76.2284 7.33977 29.0749
C 80.1063 3.55699 31.578
C 77.9668 6.2288 27.76
C 77.7904 5.18348 32.4696
C 76.6384 6.70374 30.2806
C 79.59 4.58378 29.1678
C 79.4263 4.33011 30.681
C 78.4663 5.57941 28.886
C 78.3353 5.10099 31.158
C 77.7784 5.84829 30.078
C 76.6698 6.03513 32.6365
C 76.1232 6.75671 31.6038
C 80.3224 2.7728 33.8726
C 79.9035 2.7573 35.1751
C 78.8266 3.5013 35.5882
C 78.1369 4.28695 34.7179
C 78.6045 5.95288 26.446
O 78.2664 6.54705 25.4731
C 80.9669 5.23139 28.9366
C 75.0382 8.28613 29.1148
C 81.4818 1.86932 33.5319
H 82.2945 5.19913 34.0533
H 82.971 6.95207 32.4785
H 84.8911 4.02783 30.0213
H 84.2232 2.25392 31.5987
H 84.0656 7.38458 30.567
H 82.769 2.97045 34.9201
H 83.6259 1.77966 33.9208
H 76.5105 7.60877 26.9777
H 80.9606 2.96864 31.2562
H 79.4791 3.66556 28.5819
H 76.217 6.1238 33.6227
H 75.26 7.38951 31.8054
H 80.4234 2.13149 35.9003
H 78.5143 3.45808 36.6322
H 77.2835 4.86288 35.0746
H 79.3975 5.1896 26.3216
H 81.0965 5.49806 27.8789
H 81.0633 6.14113 29.5457
H 81.7674 4.53315 29.22
H 75.2139 9.07934 29.8602
H 74.1337 7.73668 29.4248
H 74.8686 8.7398 28.1251
H 81.4797 1.59261 32.4725
H 81.386 0.934481 34.1017
C 141.865 23.0841 5.56771
C 140.695 23.9826 5.7239
N 144.471 26.6616 3.87727
C 143.47 27.5086 3.99735
C 143.038 23.538 4.9857
C 140.777 25.2955 5.25485
C 144.335 25.4432 4.16507
C 142.199 27.143 4.41077
C 143.143 24.8786 4.63839
C 141.986 25.7899 4.77473
C 141.769 21.7598 6.0435
C 140.633 21.3096 6.65471
C 139.54 22.1842 6.78996
C 139.547 23.483 6.35164
C 144.23 22.6 4.81118
C 143.846 21.1516 4.7961
C 142.987 20.8251 5.96376
C 143.627 28.9563 3.69894
O 142.676 29.6621 3.63598
C 144.927 29.3823 3.3369
C 143.172 20.795 3.51673
C 138.288 21.6818 7.5047
C 139.545 26.1819 5.30527
C 144.406 32.1086 2.36655
C 145.289 31.8572 3.40307
C 146.129 32.878 3.85636
C 146.084 34.1058 3.24634
C 145.217 34.3315 2.20346
C 144.379 33.333 1.78152
O 145.466 30.7146 3.9183
C 147.1 32.5418 4.97514
C 147.01 35.2384 3.69162
H 145.223 24.8127 4.04722
H 141.403 27.8798 4.4844
H 140.582 20.2946 7.0444
H 138.673 24.1082 6.51219
H 144.948 22.7987 5.6269
H 144.77 22.8584 3.88387
H 144.774 20.5522 4.87055
H 142.647 19.7758 5.92753
H 143.559 20.9152 6.90441
H 145.681 28.6571 3.69486
H 145.03 29.5094 2.24641
H 142.921 19.7163 3.48825
H 142.236 21.3702 3.38306
H 143.83 21.0023 2.65062
H 138.291 22.0173 8.55377
H 138.253 20.5866 7.49601
H 137.382 22.0769 7.02017
H 138.631 25.5836 5.16648
H 139.488 26.6815 6.28671
H 139.581 26.9313 4.50038
H 143.726 31.3304 2.02334
H 145.189 35.3043 1.71466
H 143.683 33.527 0.961688
H 147.542 31.5444 4.80046
H 147.9 33.2946 5.05442
H 146.552 32.4703 5.9311
H 146.969 35.346 4.78596
H 148.051 35.0046 3.41354
H 146.719 36.1853 3.21453
C 102.349 50.2275 22.3575
C 103.04 49.1243 21.7601
C 103.728 52.557 18.2645
C 104.406 51.327 17.8368
C 102.291 51.3601 21.5494
N 103.634 49.1449 20.6345
C 103.116 52.5583 19.5274
C 104.338 50.1794 18.6671
C 103.026 51.3939 20.3419
C 103.684 50.1729 19.9062
C 101.763 50.0224 23.679
C 101.813 48.6659 24.2174
C 102.494 47.5956 23.5631
C 103.096 47.8703 22.3768
C 103.764 53.6841 17.4112
C 104.454 53.5881 16.2449
C 105.135 52.4453 15.8695
C 105.12 51.3422 16.6458
C 101.189 50.9403 24.558
C 100.597 50.532 25.7215
C 100.613 49.2337 26.1886
C 101.238 48.3023 25.4436
C 102.578 53.8656 20.0413
O 103.283 54.6242 20.6228
O 102.541 46.3789 24.1042
O 101.512 52.4116 21.7417
O 103.135 54.8127 17.7217
O 101.23 52.2777 24.391
C 105.01 48.9475 18.2492
C 107.974 47.9076 19.7056
C 108.678 46.7568 19.927
C 108.609 45.7342 19.0217
C 107.835 45.857 17.8989
C 107.114 46.9973 17.6895
C 107.172 48.0264 18.5977
O 106.425 49.1244 18.4833
H 103.636 47.0705 21.8624
H 104.489 54.4453 15.5671
H 105.692 52.4375 14.9316
H 105.68 50.4664 16.323
H 100.108 51.2708 26.3609
H 100.156 48.9751 27.1465
H 101.3 47.2737 25.7999
H 101.521 54.169 19.9003
H 103.041 45.7672 23.5485
H 101.071 52.3656 22.5891
H 103.385 55.5424 17.1376
H 100.77 52.7544 25.0944
H 104.72 48.0763 18.8676
H 104.912 48.7488 17.1683
H 108.013 48.7237 20.4301
H 109.289 46.657 20.8244
H 109.174 44.8183 19.1944
H 107.789 45.0437 17.174
H 106.498 47.0896 16.7934
N 43.0678 6.13688 145.075
C 41.835 6.18458 144.736
C 41.1027 7.35456 144.843
C 41.6918 8.46844 145.375
C 43.0281 8.39345 145.747
C 43.671 7.15961 145.538
C 45.1402 7.15011 145.877
O 45.6553 8.04214 146.462
C 45.8903 5.94206 145.373
O 41.1898 5.18584 144.297
C 47.3944 6.15987 145.367
C 45.6771 3.88723 139.488
C 46.7515 3.30772 140.183
C 43.0692 3.60566 143.536
C 44.1567 2.9823 144.205
C 44.4866 4.06471 140.137
C 46.673 2.88877 141.489
C 43.1348 3.91457 142.174
C 45.3116 2.71602 143.537
C 44.3337 3.69504 141.493
C 45.4793 3.08014 142.178
C 43.32 4.74371 139.41
C 42.0177 4.28561 139.968
C 41.9523 4.54555 141.442
C 40.9404 5.00128 139.257
C 48.0638 3.11733 139.429
C 46.4439 2.02955 144.292
C 41.8609 3.7959 144.371
C 37.0481 3.46966 140.228
C 37.5067 4.58788 140.848
C 38.7565 5.08199 140.551
C 39.5455 4.43471 139.616
C 39.1021 3.30308 138.968
C 37.8322 2.82696 139.288
C 37.3351 1.60623 138.585
O 36.2689 1.14849 138.843
H 40.0571 7.37517 144.544
H 41.1269 9.39435 145.505
H 43.5496 9.25234 146.171
H 45.6287 5.05877 145.979
H 45.5383 5.68692 144.357
H 47.9101 5.28758 144.933
H 47.7644 6.32093 146.392