37918
Lattice='150.0 0.0 0.0 0.0 150.0 0.0 0.0 0.0 150.0' Properties=species:S:1:pos:R:3 Timestep:=T pbc=F F F 1229=T Atoms.=T
C 145.732 34.5575 115.221
C 144.717 33.6179 115.208
C 143.956 33.4558 114.091
C 144.19 34.2209 112.978
C 145.188 35.1575 112.963
C 145.957 35.3264 114.081
C 146.513 34.6644 116.488
O 147.409 35.4346 116.623
C 147.058 36.3761 114.034
H 144.524 33.0057 116.089
H 143.156 32.7138 114.083
H 143.572 34.08 112.091
H 145.362 35.7582 112.071
H 146.285 34.0222 117.362
H 146.899 37.12 114.833
H 147.082 36.8788 113.054
H 148.034 35.9028 114.236
C 87.4685 6.21343 4.68097
C 86.1758 6.44788 5.12723
C 85.1146 6.12158 4.30604
C 85.3327 5.55082 3.04913
C 86.6211 5.32113 2.5955
C 87.6692 5.65439 3.42185
C 84.1442 5.19783 2.20547
O 84.1738 5.2684 1.01998
O 85.958 6.98079 6.33378
O 86.8431 4.7638 1.40582
O 88.5058 6.52579 5.46229
C 83.6961 6.39766 4.7894
H 88.6911 5.46325 3.08575
H 83.1767 4.89775 2.65262
H 86.8213 7.11994 6.73668
H 87.7825 4.78028 1.19904
H 89.3567 6.31464 5.05863
H 83.7171 7.05197 5.67565
H 83.1053 6.87583 3.99207
H 83.2008 5.45354 5.06901
C 63.8176 111.618 81.5725
C 64.1187 112.939 81.9186
C 63.097 113.889 81.9826
C 61.7966 113.514 81.6547
C 61.4864 112.177 81.3931
C 62.5058 111.228 81.3175
C 64.9533 110.616 81.447
O 65.2648 109.992 82.4038
C 65.7021 110.472 80.1563
C 65.5539 113.266 82.2167
O 66.0372 114.289 81.8575
C 65.0801 111.228 78.9922
C 60.6997 114.571 81.6165
C 62.2021 109.771 80.9865
C 63.4269 115.309 82.4204
C 60.0424 111.753 81.1601
H 65.7906 109.401 79.9081
H 66.7425 110.809 80.3046
H 66.2243 112.548 82.7285
H 65.6662 111.06 78.0732
H 65.066 112.312 79.189
H 64.049 110.89 78.8035
H 59.9095 114.28 80.9087
H 60.2578 114.686 82.6193
H 61.1142 115.539 81.2959
H 61.5095 109.707 80.1326
H 61.7333 109.282 81.8558
H 63.1271 109.223 80.7516
H 64.259 115.298 83.143
H 63.7534 115.9 81.549
H 62.5531 115.79 82.8861
H 59.7736 111.91 80.1031
H 59.9058 110.688 81.4026
H 59.3642 112.345 81.7934
N 133.993 20.0036 5.40733
C 133.079 19.4712 4.6762
N 133.062 18.274 4.2227
C 134.023 17.5062 4.50958
C 135.064 17.9348 5.29615
C 134.98 19.2327 5.70966
C 133.973 16.1205 3.98541
O 134.88 15.3388 4.03916
O 136.135 17.1886 5.67318
C 141.815 15.3476 3.28868
C 141.752 15.1474 4.65629
C 140.671 15.5764 5.38282
C 139.626 16.2205 4.7317
C 139.681 16.4373 3.34929
C 140.774 15.99 2.62878
C 138.454 16.6699 5.54901
O 138.559 16.6549 6.73048
C 137.277 17.143 4.8583
O 142.873 14.915 2.6058
O 140.825 16.167 1.30492
H 132.227 20.1187 4.43237
H 135.779 19.6477 6.33768
H 133.062 15.7429 3.48167
H 142.563 14.6404 5.1776
H 140.633 15.4091 6.45852
H 138.868 16.9579 2.84218
H 137.415 18.1706 4.46078
H 137.0 16.4794 4.01315
H 143.526 14.4781 3.16853
H 140.018 16.5703 0.968078
C 145.318 115.601 3.60392
C 146.33 116.055 4.52113
C 144.104 119.981 3.74702
C 144.345 116.444 3.04597
C 146.329 117.405 4.86099
C 143.572 118.924 3.05887
N 145.15 119.638 4.49166
C 144.382 117.779 3.4124
C 145.386 118.313 4.34373
C 145.334 114.192 3.26152
C 146.372 113.393 3.8835
C 147.267 114.059 4.76087
N 147.219 115.275 5.02941
C 144.449 113.562 2.40161
C 144.567 112.228 2.15862
C 145.559 111.461 2.75196
C 146.468 112.016 3.61169
C 147.347 117.929 5.80007
O 147.367 119.078 6.11191
O 143.726 111.602 1.33454
C 142.385 118.929 2.11817
H 143.727 121.003 3.70263
H 143.59 116.081 2.35512
H 145.733 120.256 5.10404
H 148.052 113.447 5.22954
H 143.658 114.13 1.9176
H 145.612 110.394 2.52527
H 147.243 111.404 4.07184
H 148.125 117.289 6.25324
H 143.088 112.232 0.98699
H 141.617 118.228 2.48949
H 142.702 118.573 1.12285
H 141.961 119.944 2.03705
C 5.3627 89.2168 6.90738
C 4.88718 90.5125 6.49487
C 5.72816 91.3285 10.9157
C 5.81991 88.8688 8.23578
C 4.88644 91.5021 7.45626
C 6.04152 90.0344 10.5546
N 5.31189 92.044 9.88688
C 5.78908 89.9431 9.16019
C 5.30865 91.2696 8.76322
C 5.36221 88.1945 5.93529
C 4.91665 88.5147 4.60587
C 4.48237 89.8601 4.40549
N 4.47849 90.7393 5.27994
C 5.8135 86.8608 6.26098
C 5.82739 85.8862 5.24998
C 5.41066 86.2082 3.97617
C 4.96285 87.4838 3.64961
C 6.23068 86.5837 7.59322
C 6.22008 87.551 8.54173
C 6.5222 88.9518 11.5013
C 4.52348 87.7539 2.2209
H 5.79706 91.7252 11.9295
H 4.49635 92.4885 7.18944
H 4.98682 93.035 9.93466
H 4.13307 90.1312 3.39992
H 6.17088 84.878 5.47101
H 5.4348 85.4351 3.20527
H 6.56507 85.5799 7.84812
H 6.53792 87.302 9.55036
H 6.61821 89.3661 12.5162
H 7.48181 88.5583 11.1346
H 5.8144 88.1112 11.5395
H 3.47202 88.0875 2.20766
H 5.13731 88.5608 1.78533
H 4.62544 86.8457 1.60372
C 130.556 111.042 16.9218
C 132.013 111.084 17.1246
C 131.072 114.781 13.8906
C 132.464 114.716 14.091
C 129.971 112.074 16.1783
C 132.803 111.996 16.4621
C 130.236 113.93 14.5524
C 133.05 113.806 14.9199
C 130.757 112.969 15.4407
C 132.225 112.909 15.6105
C 129.852 109.95 17.5081
C 130.472 109.06 18.3782
C 131.852 109.182 18.642
C 132.603 110.161 18.0235
C 128.463 109.639 17.0401
O 127.606 109.31 17.7942
C 132.542 108.15 19.5364
O 132.574 108.31 20.7083
C 133.12 106.965 18.8341
C 134.125 106.239 19.7174
C 129.698 107.916 19.0194
C 133.368 115.672 13.3154
C 134.092 110.255 18.312
C 128.471 112.319 16.2048
H 130.663 115.518 13.1985
H 133.88 112.0 16.5956
H 129.165 113.999 14.3703
H 134.13 113.776 15.0381
H 128.201 109.666 15.967
H 133.591 107.281 17.8865
H 132.314 106.277 18.5239
H 134.936 106.923 20.0147
H 133.633 105.879 20.6355
H 134.561 105.379 19.1858
H 128.91 108.32 19.6759
H 130.353 107.27 19.6253
H 129.196 107.307 18.249
H 134.283 115.888 13.8895
H 132.838 116.609 13.0857
H 133.672 115.209 12.3628
H 134.669 109.981 17.4124
H 134.351 111.289 18.5928
H 134.371 109.587 19.142
H 127.99 111.833 15.3408
H 128.04 111.938 17.1448
H 128.265 113.401 16.1501
C 101.734 67.0345 144.886
C 101.135 68.2409 144.29
C 104.888 66.7451 141.196
C 104.283 67.9916 140.619
C 102.833 66.426 144.283
C 101.694 68.7359 143.112
C 104.389 66.2318 142.406
C 103.248 68.6333 141.262
C 103.35 66.889 143.064
C 102.755 68.1147 142.459
C 101.136 66.5383 146.068
C 100.045 67.1369 146.638
C 99.4945 68.287 146.058
C 100.022 68.8291 144.919
C 105.912 66.196 140.448
N 106.309 66.6865 139.374
C 105.816 67.7442 138.849
C 104.825 68.443 139.392
C 103.429 65.1952 144.94
C 103.139 65.1566 146.421
C 101.672 65.2568 146.698
C 101.157 70.0314 142.579
O 100.42 70.0737 141.653
C 101.673 71.2802 143.278
O 106.459 65.0922 140.95
O 106.296 68.1992 137.693
H 104.82 65.3197 142.808
H 102.811 69.5269 140.824
H 99.5926 66.7165 147.539
H 98.6196 68.7471 146.524
H 99.552 69.7136 144.492
H 104.428 69.3394 138.914
H 103.028 64.2982 144.44
H 104.518 65.1813 144.771
H 103.539 64.2264 146.852
H 103.67 65.9775 146.926
H 101.469 65.256 147.783
H 101.128 64.3914 146.285
H 102.353 71.0013 144.1
H 100.83 71.8654 143.679
H 102.212 71.9149 142.558
H 107.155 64.8224 140.321
H 105.84 68.9904 137.367
C 130.329 48.3902 47.5701
C 129.875 47.4581 48.63
C 134.767 46.5404 47.8484
C 134.305 45.6612 48.9566
C 131.654 48.4065 47.149
C 130.805 46.623 49.2274
C 133.895 47.4319 47.2476
C 133.002 45.7214 49.3879
C 132.583 47.5124 47.6856
C 132.123 46.6047 48.7882
C 129.361 49.2482 47.0121
C 128.061 49.2396 47.4308
C 127.662 48.361 48.4348
C 128.512 47.4607 48.9998
C 136.105 46.45 47.4238
C 136.946 45.5601 48.0383
C 136.505 44.7231 49.0954
C 135.215 44.7638 49.5516
C 132.071 49.3775 46.0576
C 131.17 50.5855 46.0174
C 129.734 50.1903 45.8699
O 127.981 46.5863 49.8508
C 138.392 45.4859 47.5576
C 137.469 43.7434 49.7592
H 130.511 45.965 50.0386
H 134.254 48.0583 46.4374
H 132.664 45.0713 50.1914
H 127.326 49.904 46.9733
H 126.612 48.3614 48.7439
H 136.471 47.0816 46.6171
H 134.898 44.1123 50.3626
H 132.062 48.8523 45.0884
H 133.113 49.6933 46.2241
H 131.3 51.1792 46.935
H 131.465 51.2446 45.1863
H 129.074 51.0745 45.8768
H 129.557 49.6869 44.9054
H 128.565 45.8357 49.9926
H 138.632 44.4672 47.2129
H 138.567 46.193 46.7321
H 139.084 45.724 48.3817
H 136.964 43.1815 50.5597
H 138.328 44.2817 50.1897
H 137.864 43.0304 49.0181
C 79.0267 57.3892 15.5036
C 79.5913 56.1324 15.0275
C 83.0906 59.6228 14.1394
C 83.6276 58.3242 13.6679
C 79.7521 58.6098 15.4052
C 80.8552 56.1038 14.4714
C 81.8293 59.7034 14.7041
C 82.8659 57.1831 13.792
C 81.063 58.5865 14.833
C 81.5932 57.2835 14.3654
C 77.7442 57.3577 16.059
C 77.0055 56.1244 16.1495
C 77.5946 54.9076 15.6694
C 78.8333 54.9165 15.1336
C 83.8811 60.7745 14.0038
C 85.1257 60.6997 13.4463
C 85.6568 59.4851 12.9931
C 84.9292 58.3296 13.1004
C 77.1329 58.574 16.5543
C 75.8304 58.5079 17.0903
C 75.1625 57.2995 17.1548
C 75.7213 56.1212 16.7015
C 77.9027 59.7736 16.4496
C 79.1383 59.7991 15.8878
S 77.2886 61.3531 17.0693
C 85.5525 57.0385 12.5926
H 81.2709 55.1642 14.1178
H 81.4654 60.6704 15.0389
H 83.2423 56.2225 13.4521
H 77.0361 53.9746 15.7392
H 79.264 53.9836 14.7744
H 83.5062 61.7387 14.3431
H 85.7259 61.6069 13.3492
H 86.6557 59.4681 12.5535
H 75.338 59.4063 17.4554
H 74.1544 57.273 17.5792
H 75.1576 55.1922 16.7731
H 79.6671 60.7476 15.8379
H 77.0518 60.9297 18.329
H 86.5604 57.2246 12.1872
H 85.6214 56.3088 13.4161
H 84.918 56.6037 11.8028
C 12.1211 141.865 133.8
C 11.7753 140.727 134.497
C 11.2631 140.896 135.76
N 11.1162 142.029 136.308
C 11.4334 143.078 135.691
C 11.937 143.089 134.411
C 10.8638 139.68 136.507
O 10.9648 138.574 136.053
C 11.2923 144.452 136.349
C 7.8384 146.444 140.511
C 9.15789 145.86 140.448
C 8.53936 147.088 135.976
C 7.1601 146.985 139.372
C 9.83507 145.805 139.211
C 7.54271 147.359 136.832
C 9.70047 146.406 136.656
C 7.90506 146.889 138.157
C 9.18478 146.309 138.116
C 7.21351 146.483 141.778
C 7.92122 145.957 142.907
N 9.11652 145.445 142.777
C 9.68908 145.386 141.681
C 5.88252 147.07 141.868
C 5.27598 147.088 143.127
C 5.96669 146.563 144.194
C 7.23486 146.03 144.101
C 5.24855 147.598 140.706
C 5.87369 147.556 139.501
C 9.8856 145.014 136.001
H 12.5256 141.805 132.787
H 11.8897 139.733 134.057
H 12.1963 144.015 133.897
H 10.4309 139.743 137.521
H 11.375 144.333 137.438
H 12.0791 145.14 136.005
H 8.5136 147.342 134.921
H 10.8355 145.385 139.14
H 6.6074 147.859 136.577
H 10.6189 146.998 136.581
H 10.6902 144.932 141.643
H 4.28258 147.512 143.258
H 5.48183 146.581 145.173
H 7.71087 145.654 145.006
H 4.25676 148.04 140.787
H 5.37641 147.966 138.622
H 9.77975 145.098 134.913
H 9.10189 144.33 136.35
C 95.1647 85.4584 147.133
C 93.913 84.912 147.053
C 93.5429 84.2106 145.939
C 94.4406 84.0614 144.909
C 95.6988 84.6111 144.987
C 96.0563 85.3101 146.105
C 93.0354 83.9887 142.831
C 91.7038 83.584 142.848
C 90.1861 89.5882 137.437
C 93.5732 85.048 142.081
C 89.0924 88.8502 137.685
C 90.8086 84.2391 142.023
C 91.42 89.1572 138.186
C 88.6142 86.7932 139.194
C 89.212 85.9337 140.084
C 92.8623 86.9597 140.365
C 89.426 87.8181 138.672
C 92.7002 85.7392 141.276
C 90.8177 87.991 138.977
C 91.356 85.2947 141.267
C 90.5747 86.1357 140.386
C 91.4271 87.1302 139.849
C 89.3079 84.0949 141.939
C 88.6122 84.678 140.671
O 91.3173 82.5972 143.657
O 87.3502 86.6141 138.839
C 91.9408 90.2381 139.139
C 94.0504 83.2267 143.677
C 90.2431 90.7399 136.455
H 95.456 86.0157 148.025
H 93.2121 85.0332 147.879
H 92.5501 83.7655 145.873
H 96.4113 84.4833 144.172
H 97.0533 85.7458 146.181
H 94.6269 85.3192 142.137
H 88.1206 88.9878 137.212
H 92.213 88.8198 137.507
H 93.1957 87.8398 140.929
H 93.5631 86.7698 139.542
H 89.042 83.0338 142.027
H 88.8756 84.5803 142.825
H 88.592 83.9108 139.884
H 87.5541 84.8701 140.879
H 90.3739 82.4821 143.541
H 87.027 87.3117 138.264
H 92.7715 89.8423 139.739
H 91.1394 90.5608 139.818
H 92.3104 91.1023 138.572
H 94.9471 83.0173 143.078
H 93.6124 82.2735 144.002
H 90.4818 91.6746 136.992
H 89.2797 90.849 135.929
H 91.0612 90.5612 135.737
C 11.8611 133.115 16.3875
C 13.2387 133.537 16.3238
C 13.5611 129.776 19.1414
C 11.4656 131.972 17.1677
C 14.2381 132.84 17.0488
C 12.3608 130.105 18.6228
C 14.6287 130.764 18.715
C 12.5385 131.318 17.8383
C 13.8612 131.747 17.7972
C 10.8382 133.791 15.7107
C 11.2036 134.93 14.9018
C 12.5626 135.357 14.8453
C 13.5347 134.693 15.5467
C 9.46855 133.356 15.8249
C 8.51643 134.061 15.0815
C 8.88631 135.139 14.2973
C 10.1856 135.591 14.1945
C 9.13723 132.252 16.683
C 10.1189 131.531 17.3271
C 9.85231 130.408 18.3141
C 11.0052 129.418 18.5656
C 15.6793 133.256 17.0174
C 15.839 134.747 16.6428
C 14.9408 135.236 15.4832
C 15.4713 135.574 17.8919
C 16.4087 132.356 16.0708
C 15.5104 134.874 14.1503
C 7.67717 131.881 16.8794
H 13.7493 128.894 19.7457
H 15.0656 131.284 19.5802
H 15.4455 130.261 18.1779
H 12.8185 136.229 14.2481
H 7.46983 133.768 15.1082
H 8.1107 135.664 13.7331
H 10.4214 136.45 13.5698
H 9.56056 130.862 19.2719
H 8.96954 129.842 17.9863
H 10.836 128.85 19.49
H 11.0276 128.673 17.7589
H 16.1038 133.086 18.0193
H 16.8892 134.946 16.3977
H 14.8748 136.335 15.5216
H 16.1138 135.302 18.745
H 15.6212 136.65 17.705
H 14.4217 135.41 18.1811
H 17.4211 132.742 15.8612
H 16.5234 131.346 16.4987
H 15.8571 132.242 15.1265
H 16.5839 135.124 14.0985
H 15.3857 133.802 13.9516
H 14.9985 135.423 13.3411
H 7.05335 132.787 16.9394
H 7.33142 131.27 16.0283
H 7.53746 131.308 17.8097
C 144.142 71.8243 124.003
C 143.504 72.413 122.84
C 143.906 76.1601 125.373
C 144.425 72.5925 125.136
C 143.155 73.7816 122.818
C 144.317 75.0788 126.003
N 143.409 75.9379 124.124
C 144.101 73.9598 125.043
C 143.496 74.5368 123.89
C 144.445 70.4233 124.018
C 144.006 69.585 122.929
C 143.353 70.1899 121.817
C 143.146 71.549 121.772
C 145.18 69.8488 125.068
C 145.424 68.4938 125.105
C 144.917 67.6583 124.115
C 144.261 68.1962 123.025
C 144.899 71.9656 126.417
C 145.822 70.7498 126.095
N 142.472 74.3246 121.737
C 142.703 73.6542 120.497
C 142.427 72.1456 120.559
C 142.824 69.2614 120.727
C 143.68 68.0358 120.606
C 143.762 67.2885 121.905
O 146.148 67.9932 126.107
O 145.103 66.3371 124.263
C 141.216 74.9682 121.956
C 140.191 74.1147 122.686
H 143.952 77.1597 125.8
H 144.741 75.0196 127.004
H 143.113 76.6499 123.426
H 144.03 71.6287 127.0
H 145.43 72.7059 127.032
H 146.782 71.1111 125.704
H 146.043 70.1829 127.009
H 142.106 74.1201 119.697
H 143.772 73.7809 120.243
H 142.771 71.6759 119.629
H 141.347 71.9602 120.637
H 142.778 69.7829 119.76
H 141.782 68.9847 120.959
H 143.277 67.3732 119.822
H 144.69 68.3134 120.268
H 142.777 66.8771 122.182
H 144.434 66.4207 121.794
H 146.222 67.0403 125.974
H 144.567 65.8113 123.669
H 141.371 75.8763 122.558
H 140.796 75.2912 120.989
H 140.542 73.8784 123.705
H 140.025 73.1666 122.15
H 139.227 74.645 122.762
C 85.525 55.2763 116.256
N 85.6165 54.7764 115.1
C 86.2738 55.3985 114.192
N 86.8741 56.5255 114.364
C 86.8142 57.0747 115.512
C 86.1183 56.4943 116.568
C 84.7645 54.4672 117.216
O 84.5576 54.7603 118.365
C 87.5318 58.3958 115.75
C 86.0561 57.1372 117.927
N 86.3936 60.2555 118.638
C 85.6542 61.9548 123.117
C 86.7246 61.1094 119.508
C 86.3635 62.0996 121.925
C 85.4957 59.3563 118.867
C 84.6917 60.9715 123.338
C 83.8134 58.457 120.734
C 83.5524 58.9002 122.008
C 86.1687 61.2075 120.826
C 84.8495 59.2659 120.115
C 84.4066 60.0449 122.308
C 85.178 60.2162 121.111
C 87.784 62.1606 119.335
C 87.5584 63.429 120.184
C 87.4284 63.1456 121.687
C 84.9712 58.2926 117.957
C 83.5795 57.7722 118.378
C 83.3399 57.3339 119.84
H 86.3435 54.9438 113.188
H 84.3354 53.4931 116.902
H 86.8198 59.196 116.014
H 88.2824 58.302 116.554
H 88.0569 58.6968 114.823
H 87.0326 57.5738 118.174
H 85.8464 56.4031 118.712
H 85.8621 62.6519 123.93
H 84.166 60.9113 124.289
H 82.8266 58.4677 122.691
H 88.7703 61.7245 119.57
H 87.8523 62.4254 118.265
H 86.6608 63.9473 119.829
H 88.3929 64.1223 120.02
H 87.1825 64.0656 122.242
H 88.3871 62.7904 122.097
H 84.9018 58.6993 116.94
H 82.8448 58.5545 118.145
H 83.3049 56.9383 117.721
H 83.895 56.4138 120.067
H 82.2768 57.122 120.028
C 4.80379 10.0493 4.78165
C 4.41142 11.0042 5.78272
C 2.11941 7.30661 7.40835
C 4.29908 8.71603 4.76905
C 3.47293 10.6919 6.78022
C 2.87867 7.12604 6.31936
C 2.09431 8.75822 7.84687
C 3.45511 8.39842 5.87961
C 3.05091 9.37623 6.80351
C 5.69647 10.4319 3.75116
C 6.2115 11.7612 3.68382
C 5.84367 12.692 4.70774
C 4.97481 12.3341 5.77979
C 6.09708 9.5041 2.71965
C 6.98604 9.96726 1.70468
C 7.43663 11.2508 1.68285
C 7.06902 12.2149 2.6293
C 5.55799 8.21461 2.73743
C 4.66963 7.86327 3.69917
C 6.37948 14.0211 4.62999
C 6.07918 14.9369 5.65918
C 5.27466 14.5529 6.71147
C 4.71926 13.2736 6.79511
N 7.46365 13.4488 2.58992
C 7.17092 14.2751 3.47031
C 2.92338 11.7556 7.70146
C 3.92401 12.8479 8.00142
C 4.01217 6.52965 3.53378
O 4.57529 5.63496 2.99032
C 1.72015 12.3416 7.03042
C 4.94631 12.3284 9.04352
H 1.5859 6.51457 7.92335
H 3.05856 6.16334 5.84506
H 2.4725 8.88639 8.87182
H 1.08438 9.18836 7.78077
H 7.29961 9.27687 0.922725
H 8.1186 11.5436 0.881768
H 5.80937 7.51273 1.94385
H 6.48809 15.9454 5.62841
H 5.07107 15.2709 7.5076
H 7.55516 15.299 3.38753
H 2.60469 11.2778 8.63876
H 3.41388 13.7258 8.42146
H 2.95934 6.35402 3.8257
H 1.24398 13.1045 7.67078
H 1.994 12.8106 6.07015
H 0.967089 11.5614 6.82417
H 4.43356 12.0262 9.96886
H 5.50057 11.4651 8.64579
H 5.66875 13.1189 9.29462
C 6.67291 19.584 11.7767
C 7.69811 20.4135 11.3735
C 7.75915 26.1449 4.54005
C 5.45595 19.595 11.1027
C 6.49515 25.894 4.02063
C 8.32859 25.5231 5.66679
C 7.5418 21.2699 10.302
C 4.34206 24.5165 4.36548
C 3.67426 23.564 5.12132
N 4.12998 20.5952 9.17377
C 3.74395 22.0087 7.16322
C 7.70967 23.8306 7.70067
C 5.67068 24.9648 4.69466
C 5.2316 20.4191 10.022
C 7.55148 24.6597 6.41094
C 4.27214 22.9896 6.28072
C 4.47586 21.5475 8.21589
C 6.30581 21.2551 9.65827
C 6.4117 23.0179 7.71268
C 6.27168 24.4143 5.88197
C 5.79359 22.0251 8.46482
C 5.59309 23.4385 6.65468
C 5.86404 26.5632 2.84721
C 4.87563 25.7041 2.2048
C 3.72637 25.2174 3.18329
C 2.25057 23.1 4.84605
C 2.01622 21.7163 5.39329
C 2.31185 21.581 6.86081
O 9.60899 25.7397 5.97442
C 7.70968 24.6907 8.91795
C 9.02621 25.3555 9.18062
C 6.89688 26.9696 1.848
C 4.35298 18.6472 11.5702
H 6.81764 18.9139 12.622
H 8.64904 20.3881 11.9087
H 8.40558 26.8681 4.03776
H 8.35259 21.9181 9.9731
H 3.22832 20.0803 9.21929
H 8.59001 23.1787 7.66716
H 5.35919 27.4833 3.21337
H 5.36712 24.8168 1.77328
H 4.40972 26.228 1.3534
H 3.03751 24.5472 2.653
H 3.12647 26.0716 3.52646
H 2.04957 23.1218 3.76327
H 1.54353 23.8193 5.29102
H 2.62429 20.9923 4.82935
H 0.971871 21.4204 5.20228
H 1.61807 22.1956 7.45719
H 2.15762 20.5432 7.19744
H 9.83866 25.117 6.66748
H 6.90961 25.4484 8.84435
H 7.43844 24.0714 9.78507
H 9.85464 24.6293 9.11102
H 9.19585 26.1812 8.46894
H 9.04641 25.7993 10.1921
H 6.41882 27.4036 0.949457
H 7.57522 27.7345 2.26638
H 7.49615 26.0946 1.53307
H 4.65571 17.6043 11.3922
H 3.42032 18.8437 11.0223
H 4.17569 18.7785 12.6478
C 8.13114 15.3222 141.972
C 14.4195 18.722 143.421
C 7.57288 15.8063 143.224
C 13.8648 19.2114 144.707
C 9.45371 15.6223 141.618
C 13.6651 17.9078 142.597
C 7.74581 17.0484 145.319
C 12.0087 19.374 146.387
C 8.51622 17.8173 146.173
C 10.5912 18.9594 146.688
C 11.6012 16.6732 142.167
C 8.35753 16.5837 144.075
C 12.5689 18.8435 145.048
C 9.86744 18.1868 145.827
C 10.2558 16.3784 142.474
C 12.3751 17.5239 142.961
C 9.7008 16.903 143.733
C 11.8013 18.0426 144.234
C 10.4735 17.6964 144.565
C 7.30292 14.5461 141.125
C 6.00469 14.2603 141.491
C 5.44877 14.7086 142.677
C 6.21351 15.4845 143.555
C 5.64005 15.971 144.78
C 6.38027 16.7235 145.62
C 15.7316 19.0952 143.043
C 16.4563 19.8983 143.879
C 15.9346 20.3613 145.098
C 14.6766 20.0333 145.509
C 7.92082 18.1868 147.489
O 7.9048 19.3132 147.872
O 16.2464 18.6693 141.896
C 12.2138 16.0654 140.921
H 9.82958 15.2633 140.668
H 14.1004 17.5807 141.658
H 12.666 19.0488 147.211
H 12.0708 20.4751 146.395
H 10.1456 19.3012 147.614
H 7.68932 14.1728 140.18
H 5.38738 13.658 140.818
H 4.41711 14.4587 142.92
H 4.60335 15.7375 145.025
H 5.91954 17.0968 146.533
H 17.4721 20.1969 143.606
H 16.558 21.0009 145.729
H 14.3199 20.4195 146.461
H 7.44247 17.4356 148.147
H 17.144 19.0071 141.77
H 13.2926 15.8912 141.063
H 12.0648 16.749 140.066
H 11.7486 15.0945 140.687
C 143.497 6.01437 140.118
C 142.487 6.59075 140.864
C 141.53 7.34406 140.24
C 141.571 7.52577 138.875
C 142.582 6.9551 138.135
C 143.548 6.19706 138.747
O 140.644 8.24074 138.238
C 144.587 5.21832 140.806
C 141.83 3.21981 141.578
C 135.455 2.45167 139.433
C 140.938 2.89311 142.684
C 135.56 2.28563 140.795
C 141.404 3.35137 140.23
C 136.573 2.74648 138.62
C 139.53 2.69877 142.439
C 136.803 2.40022 141.481
C 139.237 3.20889 138.679
C 140.076 3.16334 139.973
C 137.831 2.91054 139.195
C 139.217 2.86659 141.062
C 137.88 2.72735 140.584
C 138.447 2.38377 143.298
C 137.157 2.24296 142.848
C 143.192 3.39922 141.884
C 143.629 3.26863 143.174
C 142.765 2.9593 144.195
C 141.438 2.77196 143.962
C 136.458 2.86428 137.143
O 135.397 2.80818 136.609
C 139.32 4.63261 138.1
C 134.315 1.95315 141.602
C 144.245 3.69324 140.845
H 142.455 6.45265 141.944
H 140.736 7.79894 140.833
H 142.617 7.114 137.056
H 144.352 5.75618 138.16
H 140.011 8.59442 138.872
H 144.737 5.5866 141.828
H 145.529 5.35337 140.258
H 134.483 2.34261 138.954
H 142.087 3.59843 139.423
H 139.569 2.46357 137.949
H 138.64 2.24607 144.361
H 136.375 1.99955 143.567
H 144.687 3.40056 143.4
H 143.148 2.85771 145.211
H 140.776 2.5257 144.791
H 137.346 2.98751 136.493
H 138.677 4.72832 137.215
H 138.996 5.36636 138.852
H 140.354 4.86285 137.808
H 134.184 2.69628 142.406
H 134.432 0.965813 142.079
H 133.423 1.94784 140.955
H 143.935 3.35074 139.852
H 145.16 3.13961 141.097
C 55.4625 12.599 144.191
C 54.868 12.2006 145.486
N 52.4518 16.2469 143.878
C 51.9005 15.9478 145.012
C 54.9255 13.6519 143.455
C 53.7456 12.8924 145.95
C 53.3606 15.5658 143.377
C 52.2448 14.8581 145.768
C 53.8841 14.4068 143.988
C 53.2771 14.0194 145.279
C 56.5993 11.9033 143.732
C 57.1659 10.8965 144.462
C 56.5773 10.5356 145.686
C 55.4685 11.1563 146.203
C 55.5411 14.0356 142.11
C 56.3151 12.925 141.469
C 57.2871 12.3374 142.429
C 50.8131 16.7976 145.634
O 50.1815 16.435 146.575
C 50.5127 18.0583 144.876
C 55.4019 11.885 140.918
C 57.2415 9.42847 146.501
C 53.0565 12.4309 147.222
C 48.0741 18.8606 146.247
C 49.1933 19.6654 146.168
C 49.0884 21.0082 146.523
C 47.8774 21.5136 146.934
C 46.7713 20.7009 146.996
C 46.8849 19.3782 146.658
O 50.3294 19.301 145.715
C 50.3352 21.87 146.396
C 47.7265 22.9836 147.327
H 53.7682 15.9118 142.422
H 51.7601 14.6644 146.725
H 58.0662 10.3922 144.11
H 55.0847 10.8438 147.169
H 56.1923 14.9136 142.269
H 54.7441 14.3852 141.431
H 56.8873 13.3546 140.624
H 57.8176 11.4762 141.986
H 58.0761 13.0689 142.679
H 51.3556 18.3201 144.212
H 49.584 17.9784 144.288
H 55.9748 11.0871 140.405
H 54.7947 11.4165 141.714
H 54.7116 12.3223 140.17
H 57.8699 9.8704 147.291
H 57.8827 8.80344 145.86
H 56.4793 8.80239 146.99
H 53.1431 11.3378 147.327
H 53.5268 12.9183 148.092
H 51.9863 12.6895 147.195
H 48.14 17.801 146.003
H 45.8124 21.1029 147.321
H 46.0064 18.7331 146.726
H 50.8624 21.6366 145.454
H 50.0865 22.9415 146.425
H 51.033 21.6225 147.214
H 48.5245 23.264 148.031
H 47.8149 23.6234 146.434
H 46.7453 23.1567 147.792
C 15.1589 118.052 13.9984
C 13.9552 117.733 14.7321
C 10.7962 123.748 19.0121
C 15.7559 119.353 14.0917
S 12.1585 124.723 18.5181
C 10.7695 122.487 18.5382
C 13.2735 118.74 15.4995
C 13.9304 123.351 16.8154
C 15.4253 121.809 15.1874
C 12.2051 120.948 17.0153
C 12.7694 123.283 17.5552
C 11.9201 122.193 17.6814
C 15.1318 120.339 14.8198
C 14.2695 122.189 16.1342
C 13.9393 120.001 15.4839
C 13.4163 121.08 16.2661
C 12.0456 118.636 16.2239
C 11.5323 119.708 16.9449
C 15.6589 116.989 13.2268
C 15.1043 115.726 13.2669
C 13.9974 115.44 14.057
C 13.4107 116.45 14.7884
C 12.268 116.177 15.7593
C 11.3154 117.335 15.9628
C 17.1346 119.647 13.5595
O 17.325 120.498 12.754
O 14.7034 124.443 16.7212
C 15.3673 122.728 13.9479
C 9.6411 121.519 18.883
C 10.4056 117.009 17.1033
C 16.7657 121.941 15.9394
C 16.839 117.145 12.2782
H 10.043 124.186 19.664
H 10.5777 119.598 17.4463
H 15.5409 114.923 12.6709
H 13.599 114.426 14.0972
H 11.7166 115.287 15.4171
H 12.7041 115.881 16.7263
H 10.7266 117.471 15.0438
H 18.0276 119.128 13.9569
H 14.3091 125.116 17.2714
H 14.4149 122.572 13.4214
H 15.431 123.781 14.2567
H 16.1934 122.5 13.2616
H 9.1164 121.215 17.9643
H 8.9209 121.999 19.5628
H 10.0521 120.621 19.3692
H 9.58534 117.742 17.1817
H 9.94364 116.016 16.9587
H 10.9643 116.991 18.0565
H 16.8747 122.981 16.2713
H 16.7698 121.294 16.8284
H 17.6048 121.666 15.2866
H 16.9116 116.277 11.6017
H 17.781 117.213 12.8451
H 16.7214 118.062 11.678
C 106.19 84.4459 51.4315
C 107.511 85.0432 51.7296
C 103.877 88.3684 52.9397
C 105.09 88.9643 53.2749
C 104.992 85.0657 51.7497
C 107.5 86.3099 52.3352
C 103.837 87.1022 52.4384
C 106.266 88.3147 53.1058
C 105.029 86.3597 52.2597
C 106.312 87.0138 52.5785
C 106.165 83.1427 50.8652
C 107.33 82.4506 50.6533
C 108.565 83.0375 50.948
C 108.659 84.2943 51.4395
N 103.78 84.3877 51.6072
C 103.776 83.5751 50.429
C 104.858 82.4637 50.4995
C 108.747 86.9675 52.8562
O 109.448 87.6237 52.1627
C 108.957 86.8869 54.3598
O 109.924 84.7154 51.5831
O 105.119 90.2051 53.7655
C 103.243 83.8962 52.8336
C 102.443 82.9115 50.0745
C 107.364 81.0486 50.0507
C 101.07 82.4161 56.3049
C 100.519 83.432 57.0391
C 100.361 84.6749 56.4937
C 100.762 84.8943 55.1989
C 101.322 83.8708 54.4554
C 101.473 82.6265 55.0155
C 101.724 84.0655 52.9918
C 100.556 86.2914 54.6208
H 102.941 88.9205 53.0675
H 102.877 86.6742 52.1577
H 107.188 88.8337 53.3589
H 109.486 82.4892 50.7343
H 104.074 84.2449 49.6058
H 104.95 81.9435 49.5359
H 104.599 81.7083 51.2535
H 109.301 87.8634 54.7348
H 109.729 86.1348 54.5909
H 108.021 86.5908 54.8613
H 109.947 85.6469 51.402
H 104.228 90.565 53.7981
H 103.509 82.8326 52.9347
H 103.759 84.4081 53.6641
H 101.648 83.6755 50.0504
H 102.498 82.4497 49.0764
H 102.186 82.1389 50.8136
H 108.357 80.5904 50.1831
H 107.153 81.0966 48.9703
H 106.604 80.4073 50.5218
H 101.185 81.4284 56.7529
H 100.203 83.2489 58.067
H 99.9188 85.4793 57.0808
H 101.901 81.8089 54.4367
H 101.431 85.0615 52.6436
H 101.202 83.3281 52.3712
H 101.528 86.7308 54.3465
H 100.062 86.9448 55.3565
H 99.9322 86.2401 53.7144
C 45.5623 123.347 13.1051
C 45.3642 124.601 12.3742
C 49.956 124.652 12.7016
C 46.851 122.88 13.4142
C 46.514 125.314 11.9296
C 49.4202 123.514 13.1581
N 49.0136 125.533 12.2438
C 47.93 123.668 13.0136
C 47.7481 124.911 12.3529
C 44.4326 122.606 13.519
C 43.1776 123.088 13.2921
C 43.0247 124.367 12.7441
C 44.0706 125.106 12.1893
C 47.0609 121.561 14.1382
C 45.8928 121.268 15.0435
C 44.612 121.286 14.2697
C 46.362 126.522 11.0503
C 45.0631 126.56 10.4197
C 43.8476 126.392 11.4241
C 51.4293 124.879 12.6611
C 52.222 123.846 13.5306
C 51.6932 122.433 13.3191
C 50.1857 122.351 13.7253
C 41.6013 124.859 12.8112
O 41.3277 125.885 13.3433
O 42.0683 122.405 13.5883
C 42.5614 126.408 10.5798
C 42.5006 127.476 9.53517
C 52.4931 121.501 14.2396
C 47.3704 126.55 9.94708
C 51.8723 121.957 11.873
C 43.8191 127.575 12.4119
H 49.2161 126.506 11.9368
H 47.1848 120.753 13.3982
H 47.994 121.591 14.7208
H 46.0264 120.292 15.5368
H 45.8563 121.995 15.8657
H 43.7652 121.123 14.9578
H 44.5848 120.455 13.5463
H 46.5075 127.425 11.6708
H 44.9913 125.761 9.66341
H 44.949 127.513 9.8773
H 51.6616 125.91 12.9827
H 51.7849 124.852 11.6151
H 52.1385 124.13 14.587
H 53.2888 123.904 13.2747
H 50.0954 122.354 14.8208
H 49.7499 121.401 13.3871
H 40.7577 124.216 12.5067
H 42.2899 121.499 13.7968
H 41.689 126.529 11.2298
H 42.4362 125.426 10.1016
H 42.6804 128.476 9.96384
H 43.2088 127.284 8.7123
H 41.4983 127.504 9.07552
H 52.1302 120.466 14.1566
H 52.3996 121.82 15.2891
H 53.5616 121.519 13.9745
H 48.3768 126.809 10.3052
H 47.4152 125.573 9.43341
H 47.1095 127.328 9.20513
H 51.5743 120.902 11.7738
H 52.9244 122.045 11.5609
H 51.25 122.549 11.1858
H 43.8675 128.538 11.8834
H 42.9186 127.548 13.042
H 44.6779 127.519 13.0797
N 38.755 67.1034 59.7497
C 38.407 65.8748 59.8161
C 37.1551 65.455 59.4027
C 36.2508 66.3815 58.9603
C 36.6448 67.7119 58.8986
C 37.9602 67.9969 59.3074
C 38.3709 69.4386 59.1454
O 37.5927 70.2933 58.8852
C 39.8545 69.6715 59.287
O 39.152 64.9536 60.2698
C 40.2808 71.0171 58.7246
C 44.2571 66.4892 56.2155
C 44.7904 67.6615 56.7774
C 41.4868 66.0137 60.1432
C 42.0732 67.1765 60.7092
C 43.3429 65.7699 56.9344
C 44.453 68.1257 58.0254
C 41.9405 65.4954 58.9267
C 43.0568 67.8384 60.0428
C 42.911 66.1992 58.2106
C 43.504 67.4235 58.7635
C 42.7142 64.5161 56.3172
C 42.2922 63.5616 57.3799
C 41.346 64.2182 58.3386
C 41.6614 62.3994 56.7232
C 45.816 68.4376 55.9567
C 43.6636 69.0744 60.6953
C 40.4504 65.3747 60.988
C 40.8622 59.201 59.4777
C 39.8655 60.0558 59.1293
C 40.1131 61.0864 58.2511
C 41.3827 61.2533 57.7254
C 42.4075 60.3945 58.054
C 42.127 59.3592 58.9436
C 43.237 58.4239 59.2981
O 43.0682 57.5441 60.0795
H 36.8815 64.404 59.4709
H 35.2436 66.0841 58.6613
H 35.9685 68.4897 58.5425
H 40.1478 69.5822 60.3465
H 40.4046 68.8564 58.7834
H 41.3753 71.1319 58.7847
H 39.8028 71.8359 59.2861
H 39.9781 71.102 57.668
H 44.5613 66.1642 55.2203
H 41.7403 67.5356 61.681
H 44.9105 69.0329 58.4138
H 43.4377 64.0495 55.6261
H 41.854 64.8177 55.6952
H 43.1869 63.2324 57.9397
H 41.0773 63.5294 59.1585
H 40.3912 64.4672 57.8446
H 42.3162 62.0102 55.9242
H 40.7201 62.6926 56.2296
H 45.8284 69.497 56.2563
H 45.5863 68.3518 54.8833
H 46.8218 68.0199 56.124
H 43.3058 69.1782 61.7311
H 43.3823 69.9707 60.1206
H 44.7627 68.9978 60.6925
H 40.8194 64.4391 61.4382
H 40.1071 66.057 61.7843
H 40.6634 58.386 60.1743
H 38.8658 59.9249 59.5452
H 39.3094 61.7652 57.9684
H 43.4022 60.5154 57.6271
H 44.2472 58.5159 58.8537
C 68.7258 53.2469 108.658
C 63.0706 48.0998 111.244
C 67.3093 52.9954 108.434
C 63.0774 49.2762 110.352
C 69.4488 52.4327 109.525
C 64.2721 47.6677 111.84
C 66.6635 51.9343 109.091
C 64.253 49.9788 110.098
C 69.5514 50.5619 111.045
C 68.9547 49.4563 111.745
C 66.7913 48.1077 112.174
C 68.7873 51.3589 110.191
C 65.4003 48.3856 111.58
C 67.5642 49.2436 111.514
C 67.3655 51.1362 109.954
C 65.4079 49.5222 110.717
C 66.798 50.0269 110.685
C 69.38 54.3313 107.982
C 68.6298 55.1325 107.115
C 67.2832 54.8763 106.917
C 66.616 53.8436 107.545
C 61.8692 47.4261 111.491
C 60.7146 47.8777 110.894
C 60.7251 48.9874 110.039
C 61.8671 49.6833 109.763
C 70.966 50.8211 111.248
C 71.6956 49.9835 112.121
C 71.0742 48.9337 112.77
C 69.7309 48.6537 112.602
C 71.6089 51.8849 110.591
C 70.875 52.6834 109.742
C 70.7804 54.5635 108.211