37918
Lattice='70.0 0.0 0.0 0.0 70.0 0.0 0.0 0.0 70.0' Properties=species:S:1:pos:R:3 Timestep:=T pbc=F F F 1229=T Atoms.=T
C 5.00093 69.0844 69.6423
C 5.96791 68.3088 0.271497
C 7.07156 68.8946 0.929129
C 7.17966 0.295515 0.972392
C 6.12621 1.10248 0.482526
C 5.07261 0.490616 69.7959
C 3.88196 68.4956 68.7925
O 2.74692 68.8778 68.8316
C 3.97246 1.32701 69.1244
H 5.88336 67.2263 0.201748
H 7.78379 68.2485 1.41751
H 8.02771 0.801025 1.42716
H 6.19141 2.20228 0.550477
H 4.12 67.6426 68.0563
H 3.84628 1.01827 68.0691
H 4.17425 2.42286 69.3793
H 2.99046 1.18277 69.6294
C 65.89 2.61633 1.27413
C 65.0652 2.15122 2.34352
C 65.6256 1.95371 3.60836
C 67.0009 2.2442 3.98268
C 67.8381 2.37929 2.85354
C 67.261 2.72872 1.62447
C 67.2347 2.41176 5.48285
O 67.0678 1.49465 6.26308
O 63.7339 1.89105 2.20464
O 69.1135 1.93672 2.69174
O 65.4044 2.85537 0.0205587
C 64.742 1.33787 4.7062
H 67.9088 2.90767 0.768652
H 67.4163 3.38546 5.96919
H 63.4719 1.81799 1.24436
H 69.4192 2.02401 1.7617
H 66.2223 2.81431 69.4946
H 63.894 0.867498 4.16413
H 65.404 0.610574 5.24445
H 64.4432 2.09556 5.38081
C 1.38229 4.23531 1.85522
C 0.312538 4.2672 2.84278
C 69.4236 5.38189 2.90665
C 69.7968 6.53323 2.21681
C 1.03369 6.60458 1.5215
C 1.80102 5.42785 1.25752
C 1.88449 2.94619 1.26309
O 2.0779 2.93126 0.0658142
C 2.08757 1.67909 2.09065
C 0.0776906 3.28829 3.9485
O 69.4326 3.49957 4.9623
C 3.32444 0.891685 1.78783
C 68.6593 7.51987 1.91069
C 3.11327 5.57049 0.439467
C 67.996 5.3057 3.50283
C 1.53871 7.85014 0.764162
H 1.21716 1.03703 1.91381
H 2.10394 1.92182 3.18156
H 0.674104 2.35707 4.04638
H 3.75183 0.440683 2.70536
H 4.11195 1.54909 1.40924
H 3.10965 -0.0134474 1.16366
H 69.0743 8.48244 2.24351
H 68.4266 7.5194 0.844596
H 67.7431 7.34108 2.49036
H 3.81258 6.22051 1.03888
H 2.93443 5.95516 69.4087
H 3.63835 4.59091 0.346188
H 67.9085 4.77755 4.43474
H 67.6597 6.33853 3.781
H 67.2601 4.84853 2.7698
H 2.58157 7.89568 1.04169
H 1.54735 7.66336 69.6849
H 0.991107 8.75075 1.08387
C 4.82878 3.88456 12.0263
C 3.52746 3.3236 12.322
C 5.65905 2.61632 16.2419
C 6.03088 3.74846 12.8574
C 3.54883 2.28189 13.3282
C 6.52695 3.03676 15.3162
N 4.44882 2.16008 15.7312
C 5.79862 2.95462 14.0339
C 4.56151 2.29167 14.3129
C 4.88012 4.94122 11.0468
C 3.62994 5.40285 10.4776
C 2.46073 4.65775 10.8632
N 2.42493 3.69897 11.7186
C 6.16379 5.61845 10.7433
C 6.1324 6.5966 9.68074
C 4.98553 6.93352 9.00088
C 3.73668 6.33334 9.41871
C 7.33237 5.28949 11.4849
C 7.22027 4.49793 12.6373
C 7.9497 3.59438 15.6154
C 2.41599 7.00703 8.98929
H 5.88111 2.59765 17.3274
H 2.60728 1.69214 13.4111
H 3.58928 1.80473 16.3363
H 1.46871 4.99138 10.3714
H 7.10552 7.09956 9.43257
H 4.93822 7.60306 8.12868
H 8.2456 5.84893 11.2935
H 7.98548 4.42976 13.4264
H 8.30268 3.15768 16.5463
H 7.94571 4.72321 15.7452
H 8.55506 3.33238 14.6557
H 1.59186 6.3083 9.08224
H 2.06137 7.67287 9.77678
H 2.59353 7.56207 8.0337
N 64.8977 5.3066 1.09597
C 64.2803 4.45746 1.88583
N 64.3167 4.39666 3.19491
C 64.9659 5.29731 3.81702
C 65.4231 6.45987 3.09757
C 65.5306 6.29894 1.72371
C 65.2245 5.09599 5.25963
O 65.9686 5.79528 5.93108
O 65.6292 7.64412 3.61577
C 66.1336 10.1685 7.99639
C 65.8335 11.269 7.19844
C 65.7871 11.1992 5.83056
C 65.957 9.95335 5.16013
C 66.4121 8.83102 5.98756
C 66.4471 8.9699 7.35847
C 65.9126 10.087 3.67964
O 65.8973 11.1562 3.1198
C 65.7878 8.87964 2.84725
O 66.2144 10.3019 9.35438
O 66.8617 7.8638 8.03834
H 63.6681 3.74803 1.26087
H 66.1046 7.07049 1.14448
H 64.7957 4.25864 5.92758
H 65.8209 12.2252 7.73066
H 65.6296 12.1103 5.24834
H 66.5972 7.87488 5.43649
H 64.8844 8.91361 2.18002
H 66.656 8.78824 2.14209
H 65.8843 11.1719 9.70661
H 66.7484 7.03316 7.57332
C 1.8403 31.6964 51.5488
C 2.10982 30.6563 50.5753
C 67.5131 31.0484 50.0662
C 0.485502 32.1063 51.8128
C 1.04137 30.2711 49.7229
C 67.997 31.8071 51.053
N 68.4711 30.3064 49.3861
C 69.4842 31.5401 51.0813
C 69.7193 30.6505 49.9368
C 2.91034 31.9775 52.5356
C 4.06706 31.0785 52.45
C 4.18124 30.1456 51.3939
N 3.24883 30.0437 50.5044
C 2.87054 32.931 53.5441
C 3.9244 33.0193 54.4304
C 5.00141 32.142 54.4266
C 5.1014 31.1348 53.4262
C 1.33082 29.1244 48.7078
O 0.421035 28.434 48.3748
O 3.81095 33.8315 55.5106
C 67.2073 32.6748 52.0733
H 66.451 30.9117 49.8299
H 0.230657 32.7779 52.6326
H 68.1935 29.5027 48.7184
H 5.03061 29.4601 51.3157
H 1.97486 33.6362 53.5597
H 5.75335 32.2723 55.2104
H 5.98901 30.4904 53.2714
H 2.33417 28.9575 48.3118
H 2.92314 34.2046 55.4793
H 66.4384 32.0083 52.5034
H 66.6673 33.4601 51.54
H 67.8346 33.0676 52.8666
C 56.9471 63.2376 16.6622
C 58.0947 62.3162 16.3383
C 57.8137 62.8616 21.4147
C 59.0893 62.0735 21.1258
C 56.7191 63.7319 17.9525
C 58.9074 61.8924 17.4465
C 57.1195 63.4321 20.3669
C 59.4961 61.8499 19.8198
C 57.4953 63.1999 19.0442
C 58.6575 62.2709 18.7616
C 56.0801 63.6853 15.6275
C 56.3455 63.3138 14.3283
C 57.3819 62.3678 14.0625
C 58.2706 61.8876 14.997
C 57.2772 62.9304 22.729
C 58.0154 62.4292 23.814
C 59.2553 61.7643 23.5682
C 59.761 61.5132 22.2697
C 55.7048 64.8054 18.2587
C 55.0261 65.5841 17.1107
C 54.8824 64.6462 15.8744
O 59.2556 61.1032 14.5095
C 57.4465 62.6147 25.244
C 59.9994 61.2307 24.8087
H 59.7453 61.1999 17.3193
H 56.216 64.052 20.5163
H 60.3515 61.2449 19.5958
H 55.6842 63.6709 13.5928
H 57.6541 62.087 13.0522
H 56.2872 63.3862 22.8551
H 60.6846 60.8987 22.1288
H 56.1871 65.5401 18.9825
H 54.8919 64.3484 18.8751
H 54.0634 65.9081 17.4807
H 55.4992 66.537 16.8514
H 53.9357 64.1552 15.8909
H 54.6912 65.2712 14.9313
H 59.815 60.6908 15.2081
H 57.9529 63.5164 25.7005
H 56.3301 62.7895 25.1792
H 57.7386 61.7111 25.8799
H 61.0252 60.9128 24.4283
H 59.436 60.3551 25.2694
H 60.0229 62.0651 25.5747
C 28.7287 45.0561 48.7769
C 27.7681 44.4615 47.8408
C 32.3723 42.7865 46.5205
C 31.3639 42.2331 45.531
C 30.1389 44.9337 48.5517
C 28.2945 43.8967 46.6269
C 32.0445 43.8595 47.4325
C 30.071 42.6907 45.5093
C 30.687 44.1244 47.5362
C 29.6881 43.5748 46.5177
C 28.1792 45.6115 49.9685
C 26.8211 45.5062 50.2002
C 25.9075 44.8047 49.3075
C 26.3813 44.2956 48.1396
C 33.6177 42.1264 46.5329
N 33.8434 41.0633 45.8635
C 32.9785 40.5485 45.0838
C 31.7502 41.0721 44.7891
C 31.0567 45.8066 49.4478
C 30.3488 46.6488 50.5341
C 29.1276 46.0371 51.1162
C 27.3878 43.9393 45.4291
O 27.2736 43.074 44.5886
C 26.6593 45.2672 45.3558
O 34.536 42.6262 47.3608
O 33.1635 39.3965 44.3962
H 32.7615 44.3481 48.0794
H 29.3747 42.2875 44.8155
H 26.375 45.8822 51.1165
H 24.8228 44.6621 49.5812
H 25.6873 43.8787 47.4296
H 31.0591 40.5427 44.0238
H 31.923 45.2005 49.8774
H 31.6695 46.4675 48.7671
H 31.1171 46.8589 51.2824
H 30.0714 47.6008 50.0398
H 28.578 46.8382 51.6495
H 29.2108 45.2475 51.9421
H 27.1711 46.0166 46.042
H 25.6431 45.1388 45.7044
H 26.5601 45.6772 44.3227
H 35.2207 41.9082 47.2673
H 32.513 39.0121 43.7106
C 4.81367 66.8088 2.55515
C 3.82557 67.5947 3.32897
C 7.54483 66.4231 6.60334
C 6.42149 66.8878 7.34799
C 6.08344 66.7218 3.19484
C 3.90652 67.6207 4.77915
C 7.48096 66.3643 5.2323
C 5.21483 67.2657 6.77338
C 6.29195 66.7587 4.59209
C 5.06965 67.2513 5.36557
C 4.29197 66.1069 1.38823
C 3.02882 66.4764 0.873168
C 2.20509 67.3735 1.57657
C 2.60917 68.0618 2.75601
C 5.12941 65.0525 0.76575
O 4.87263 64.5602 69.6801
C 0.697595 67.3865 1.31098
O 0.21048 67.2932 0.222005
C 0.0531755 66.8579 2.59653
C 68.9912 67.8495 3.0495
C 2.31707 65.757 69.7159
C 6.29263 67.0957 8.86373
C 1.7097 69.0737 3.48754
C 7.2764 66.0601 2.4308
H 8.41729 66.0565 7.12663
H 3.03029 67.9077 5.41667
H 8.3004 66.0351 4.58298
H 4.38623 67.4171 7.39146
H 5.90982 64.5256 1.3528
H 0.729652 66.6498 3.44354
H 69.5737 65.898 2.36586
H 68.3095 67.4468 3.82734
H 69.3781 68.7699 3.47267
H 68.3491 68.1574 2.21271
H 2.92302 64.8994 69.3686
H 2.01424 66.5518 68.958
H 1.31924 65.3501 -0.00463825
H 5.23732 66.8064 9.12932
H 6.53851 68.1494 9.21512
H 7.03507 66.5162 9.43847
H 1.16554 68.549 4.31711
H 2.31728 -0.129182 3.91873
H 0.903292 69.4996 2.85548
H 7.39682 65.0828 2.84864
H 7.20623 66.0511 1.32317
H 8.20329 66.6512 2.7065
C 40.9429 49.075 47.2631
C 42.3636 48.6127 47.3995
C 39.3136 44.58 48.3242
C 40.718 44.084 48.1615
C 39.8154 48.2449 47.5737
C 42.5937 47.2855 47.6875
C 39.0447 45.9754 48.2967
C 41.7597 45.0097 47.9379
C 40.0631 46.8418 47.9255
C 41.4776 46.3621 47.857
C 40.7405 50.4704 46.9791
C 41.8547 51.392 46.877
C 43.2461 50.8739 46.9443
C 43.4802 49.5615 47.2708
C 38.242 43.6325 48.4326
C 38.5411 42.2501 48.3583
C 39.8601 41.7784 48.2932
C 40.9428 42.6532 48.1929
C 39.3891 50.9303 46.7196
C 39.1846 52.3554 46.6341
C 40.2955 53.175 46.5976
C 41.6016 52.7825 46.6891
C 38.3018 50.0253 46.7744
C 38.4805 48.7393 47.2737
S 36.7578 50.3319 45.8614
C 42.3291 42.0481 48.014
H 43.6338 46.8931 47.7767
H 38.0701 46.4313 48.4576
H 42.8068 44.662 47.8207
H 44.1435 51.5395 46.8373
H 44.4943 49.1763 47.3808
H 37.1896 43.9398 48.4081
H 37.7569 41.5258 48.4089
H 40.1403 40.7409 48.2258
H 38.1461 52.7741 46.5361
H 40.2131 54.3021 46.4637
H 42.4126 53.5067 46.6812
H 37.619 48.1008 47.3423
H 37.1839 51.4477 45.1973
H 42.2863 40.9573 48.2016
H 42.7729 42.347 47.042
H 43.0203 42.5216 48.7607
C 64.7134 68.5672 3.09383
C 63.2891 68.274 3.09357
C 63.5414 0.850385 69.1153
C 65.3542 69.433 2.11667
C 62.4385 68.8899 2.13747
C 64.7137 0.45734 69.6999
C 62.3528 0.334626 69.901
C 64.4885 69.818 1.01225
C 63.1061 69.6032 1.11267
C 65.443 68.2348 4.27796
C 64.9476 67.3235 5.26603
C 63.538 66.8947 5.15283
C 62.6665 67.4282 4.14795
C 66.7202 68.8945 4.57559
C 67.3182 68.6568 5.83985
C 66.7867 67.8009 6.742
C 65.6134 66.9974 6.52622
C 67.3676 69.6923 3.59342
C 66.7484 69.8358 2.31341
C 62.9968 66.1024 6.25358
C 61.596 65.8011 6.18816
C 60.7627 66.2791 5.18519
C 61.2468 67.2299 4.2486
N 65.1116 66.1138 7.34138
C 63.9057 65.5798 7.2089
C 60.9308 68.9461 2.27105
C 60.2898 68.0558 3.42678
C 67.668 0.173737 1.19285
O 68.857 69.91 1.18682
C 60.8357 0.477954 2.64277
C 59.0874 67.2497 2.92954
H 63.3723 1.5216 68.2631
H 65.7336 0.664802 69.3085
H 61.6694 69.6637 69.3386
H 61.7512 1.17101 0.251879
H 68.2412 69.1654 6.04411
H 67.2542 67.6874 7.68299
H 68.3162 0.218148 3.85524
H 61.2192 65.0887 6.8948
H 59.7207 66.0731 5.21346
H 63.6196 64.8593 8.02005
H 60.4852 68.6971 1.29752
H 59.9418 68.7301 4.24177
H 67.2912 0.509605 0.171982
H 59.7894 0.697122 2.95878
H 61.5896 0.698996 3.43303
H 60.9603 1.11722 1.75182
H 58.1843 67.8504 3.10756
H 59.202 67.045 1.83512
H 58.8837 66.3319 3.5366
C 13.3792 1.64038 2.23275
C 13.6011 0.490415 2.96949
C 13.6217 69.1928 2.39866
N 13.423 69.0527 1.10949
C 13.186 0.106322 0.412258
C 13.1606 1.43113 0.854993
C 13.665 68.0875 3.38691
O 14.0741 68.2412 4.52872
C 12.7032 0.10855 68.9213
C 18.7159 0.760991 69.9744
C 17.5972 0.0831598 0.670329
C 15.6757 0.567945 66.4636
C 18.4315 1.54505 68.7429
C 16.3605 69.8305 70.0238
C 16.8077 1.28129 66.7031
C 15.0614 69.8918 67.7033
C 17.1767 1.16129 68.0996
C 16.2814 0.247185 68.7514
C 19.8757 1.04801 0.736039
C 19.8532 0.720881 2.16467
N 18.8265 0.20293 2.77239
C 17.7687 69.9009 2.09431
C 20.843 2.02126 0.196296
C 21.9623 2.36825 1.03367
C 22.0007 1.91958 2.30409
C 20.9553 1.1633 2.88935
C 20.6279 2.57573 68.9136
C 19.4391 2.4225 68.2878
C 13.7142 0.686331 67.8874
H 13.3287 2.63671 2.70571
H 13.6551 0.628781 4.06152
H 12.9509 2.29578 0.18288
H 13.2264 67.056 3.18302
H 12.2914 69.1847 68.4905
H 11.8094 0.722418 68.9079
H 15.2035 0.583965 65.4635
H 15.61 69.1794 0.529585
H 17.3863 1.85229 65.9612
H 14.8047 68.806 67.5423
H 16.9243 69.5424 2.65979
H 22.7032 3.03913 0.640814
H 22.919 2.12879 2.89764
H 20.9822 0.800924 3.91964
H 21.434 3.21427 68.5369
H 19.2006 2.96167 67.3934
H 13.2231 0.714175 66.8908
H 13.9233 1.72365 68.1768
C 37.5511 3.6695 20.1292
C 38.0768 2.34149 19.9804
C 38.9172 2.8672 24.4007
C 37.2433 4.18658 21.4405
C 38.4231 1.40729 21.0622
C 38.1441 3.87854 23.8716
N 39.1666 1.8678 23.5027
C 37.8338 3.42061 22.4753
C 38.5454 2.1348 22.3367
C 37.4296 4.63763 19.0888
C 38.0246 4.34076 17.774
C 38.3041 2.92032 17.538
C 38.2705 1.9738 18.6115
C 36.9189 5.98549 19.2312
C 37.0528 6.96322 18.194
C 37.6744 6.64807 16.976
C 38.0725 5.2992 16.7494
C 36.2144 5.3046 21.6613
C 36.2735 6.42973 20.5439
N 38.5553 0.149387 20.8016
C 38.2009 69.5385 19.479
C 38.5433 0.480708 18.2904
C 38.9636 2.67291 16.1723
C 38.1031 3.61596 15.2103
C 38.7064 5.04395 15.3413
O 36.669 8.25054 18.4541
O 37.8688 7.67145 16.058
C 38.8484 69.2444 21.9307
C 38.6728 67.7541 21.7489
H 39.3295 2.98507 25.3915
H 37.8222 4.788 24.3835
H 39.7663 1.07085 23.7666
H 36.2203 5.80975 22.6655
H 35.1969 4.85224 21.5306
H 35.223 6.80556 20.3562
H 36.7184 7.40599 20.9278
H 38.6022 68.5231 19.4021
H 37.0807 69.34 19.4081
H 38.0569 0.0933395 17.333
H 39.6242 0.419262 18.0312
H 39.0036 1.63469 15.8572
H 40.044 2.96938 16.2817
H 38.319 3.23767 14.1897
H 37.003 3.66662 15.3013
H 39.8306 5.0712 15.4565
H 38.3966 5.69106 14.4698
H 36.7867 8.84991 17.7312
H 38.368 7.36907 15.322
H 39.9561 69.3667 22.1841
H 38.2795 69.5452 22.8354
H 39.2985 67.3811 20.881
H 37.6029 67.4752 21.5254
H 38.9681 67.1993 22.6913
C 19.4683 59.7953 62.3641
C 20.1171 58.8748 63.2702
C 16.8231 56.1769 61.0718
C 18.4168 59.4158 61.3818
C 19.4977 57.549 63.4381
C 17.0155 57.4612 60.674
C 17.5691 55.876 62.3854
C 17.9632 58.0821 61.5916
C 18.4454 57.1661 62.5896
C 19.9354 61.1282 62.2882
C 20.9469 61.6154 63.2398
C 21.71 60.636 63.9739
C 21.1984 59.311 64.1329
C 19.1033 62.0925 61.5563
C 19.2738 63.4768 61.8607
C 20.1578 63.8834 62.8562
C 20.9653 63.0163 63.608
C 18.2301 61.6239 60.5052
C 17.8702 60.3006 60.392
C 16.7511 59.7802 59.445
C 16.545 58.28 59.4342
C 19.6106 56.6599 64.6629
C 20.3879 57.5621 65.7096
C 21.6495 58.4411 65.2847
C 19.3789 58.7082 66.0225
C 20.3261 55.3128 64.6434
C 22.9066 57.5778 64.9502
C 17.6257 62.7249 59.6003
H 16.2767 55.3907 60.4927
H 16.8868 55.7932 63.2318
H 18.1007 54.9179 62.303
H 22.6297 60.8192 64.5449
H 18.6934 64.2205 61.3587
H 20.2898 64.9772 63.0098
H 21.5864 63.4326 64.4013
H 15.791 60.2161 59.738
H 16.8545 60.1276 58.4801
H 15.4908 58.0405 59.2457
H 17.0027 57.875 58.5424
H 18.5917 56.4101 65.0151
H 20.6366 56.9614 66.5523
H 21.9303 59.1413 66.12
H 18.37 58.4322 65.6978
H 19.5409 58.9464 67.0882
H 19.6934 59.5757 65.4786
H 19.9876 54.5933 65.4138
H 20.0932 54.79 63.7664
H 21.4278 55.3995 64.7054
H 22.9151 56.5942 65.4829
H 22.8565 57.363 63.8842
H 23.885 58.0849 65.1175
H 16.9426 63.3347 60.2126
H 18.4709 63.3317 59.2384
H 17.0185 62.314 58.7826
C 36.777 60.4373 39.2377
N 37.7884 61.1543 39.5767
C 37.5601 62.3326 40.0425
N 36.4133 62.9364 40.1764
C 35.3341 62.2194 39.9114
C 35.4212 60.9638 39.3708
C 36.7086 58.9621 38.9495
O 36.4837 58.5765 37.8256
C 33.8787 62.7438 40.2187
C 34.2316 60.0858 39.0211
N 32.1683 62.045 37.5575
C 29.9763 61.3239 41.6481
C 31.3174 62.5498 38.3184
C 30.0502 62.1534 40.4903
C 32.4632 60.7436 37.5723
C 30.6315 60.0584 41.6723
C 32.2609 58.4059 38.7259
C 31.9311 58.3584 40.065
C 30.5827 61.6867 39.2323
C 31.6902 59.6864 38.1925
C 31.0911 59.4699 40.449
C 30.8323 60.2542 39.2348
C 30.9233 63.9843 38.4088
C 29.5964 64.3177 39.1872
C 29.8007 63.6867 40.5881
C 33.811 60.1093 37.4434
C 33.6901 58.6482 36.806
C 33.2446 57.6455 37.8683
H 38.5291 62.8404 40.2619
H 36.8086 58.1231 39.7703
H 33.3037 62.5922 39.3419
H 33.4625 62.1112 40.9908
H 33.9788 63.795 40.4937
H 33.3697 60.2203 39.6347
H 34.497 59.0788 39.2639
H 29.3593 61.672 42.5149
H 30.8546 59.523 42.5737
H 32.3989 57.6005 40.7376
H 31.7308 64.6718 38.7421
H 30.9177 64.3928 37.3274
H 28.6799 63.9966 38.6568
H 29.437 65.4346 39.2566
H 28.8787 63.8377 41.2374
H 30.6437 64.1285 41.2178
H 34.4788 60.7396 36.8075
H 32.8751 58.6637 36.0462
H 34.6791 58.3696 36.3294
H 34.0484 57.2132 38.5274
H 32.8159 56.7396 37.4292
C 47.283 61.1381 68.807
C 48.0713 60.3982 69.7175
C 47.9657 60.6765 1.11756
C 47.0399 61.6362 1.56366
C 46.2495 62.3677 0.646723
C 46.4029 62.1219 69.2572
C 48.5134 63.1459 2.65717
C 49.7098 63.2815 3.40867
C 50.5434 67.3092 66.7279
C 48.4182 63.5813 1.25622
C 51.2902 67.7806 67.7876
C 50.8446 63.6816 2.64068
C 50.2018 65.8215 66.8389
C 52.1648 66.8439 0.051668
C 52.0547 65.6693 0.84879
C 49.6981 63.336 68.9228
C 51.511 66.7566 68.7986
C 49.5525 63.2055 0.483135
C 50.9079 65.5518 68.2174
C 50.7664 63.5383 1.20963
C 51.5144 64.4691 0.317608
C 50.7794 64.421 69.0405
C 52.1356 64.4043 3.07635
C 52.2957 65.7534 2.36795
O 49.738 62.9079 4.69521
O 52.7188 67.9304 0.584133
C 50.6701 64.9706 65.6958
C 47.3153 62.2487 2.98114
C 49.9017 68.2746 65.6912
H 47.3982 60.9115 67.6999
H 48.6793 59.5535 69.3307
H 48.6978 60.1276 1.75046
H 45.637 63.2078 1.00551
H 45.9365 62.7532 68.5175
H 47.5867 63.8767 0.637479
H 51.4742 68.8649 67.8475
H 49.1373 65.7488 67.0851
H 49.9357 62.3416 68.4861
H 48.7979 63.708 68.418
H 51.9712 64.4902 4.18496
H 53.0196 63.7459 2.90935
H 51.6929 66.5728 2.83381
H 53.362 66.1847 2.58554
H 50.6475 63.0079 5.03404
H 52.5431 68.7209 69.9852
H 50.804 63.8805 66.0338
H 51.7344 65.1945 65.3131
H 49.8933 64.9471 64.8686
H 46.5429 62.9482 3.27539
H 47.6212 61.5054 3.69625
H 50.5812 68.4856 64.8228
H 49.6784 69.2315 66.237
H 48.9408 67.8678 65.3067
C 70.0058 56.1363 64.2816
C 0.116447 56.3274 62.9152
C 7.14409 56.3721 57.9196
C 1.11176 55.769 65.0877
C 8.02969 55.4889 58.622
C 5.98611 56.9817 58.3812
C 1.41807 56.2566 62.3525
C 8.15682 54.3518 60.9263
C 7.7364 54.1663 62.3176
N 3.58548 54.8539 65.0063
C 5.83393 54.547 63.9317
C 4.40587 57.0172 60.5435
C 7.8065 55.4073 60.0466
C 2.36627 55.3352 64.536
C 5.77353 56.9599 59.803
C 6.67683 54.9444 62.8017
C 4.54045 54.9571 63.942
C 2.44942 55.7191 63.1563
C 4.79322 56.2716 61.8606
C 6.78303 56.3026 60.6125
C 3.96374 55.7164 62.8415
C 6.17833 55.9674 61.8964
C 8.61421 54.3141 57.9091
C 9.57329 53.6703 58.7221
C 8.93019 53.2689 60.211
C 8.06127 52.8782 63.0912
C 7.91092 53.2057 64.5833
C 6.52184 53.5982 64.9517
O 5.03755 57.3311 57.4777
C 3.42705 56.2057 59.7068
C 2.29249 56.9594 59.0618
C 9.32158 54.8275 56.6463
C 1.00721 56.1118 66.5734
H 69.0937 56.3873 64.8261
H 69.3475 56.7668 62.2366
H 7.1588 56.4698 56.8268
H 1.62827 56.7057 61.3561
H 3.79775 54.6562 66.0073
H 4.10553 58.0606 60.6136
H 7.76247 53.6438 57.5794
H 10.3677 54.3895 58.8585
H 10.0817 52.7643 58.2135
H 9.67109 52.8386 60.9158
H 8.11696 52.5404 60.0271
H 9.0997 52.5659 62.8199
H 7.34535 52.0423 62.8286
H 8.64745 53.9736 64.8297
H 8.22455 52.3134 65.1959
H 5.86091 52.6765 65.0564
H 6.487 54.1412 65.9525
H 4.3607 57.819 57.9651
H 4.0373 55.6607 58.9384
H 3.05202 55.3729 60.4005
H 1.45057 57.1224 59.7612
H 2.56046 58.005 58.7567
H 1.95122 56.3828 58.178
H 9.03454 54.2097 55.7387
H 9.02841 55.8832 56.4902
H 10.4138 54.7116 56.818
H 2.01249 56.2984 66.9929
H 0.523503 55.2176 67.0154
H 0.39259 57.0377 66.6131
C 5.18721 2.11543 66.8336
C 6.29022 1.13581 66.756
C 2.7262 68.5404 65.6209
C 4.04178 1.97592 65.9477
C 5.97216 69.8777 66.1041
C 2.4294 69.869 65.5587
N 4.05627 68.2376 65.5384
C 3.76306 0.615118 65.6047
C 4.68444 69.5626 65.7395
C 5.25299 3.27218 67.6697
C 6.35016 3.37867 68.5334
C 7.40094 2.4077 68.537
C 7.49819 1.37632 67.495
C 3.23615 3.19552 65.5548
C 2.80209 3.76676 66.9611
C 4.02707 4.21472 67.7563
C 7.10143 68.873 65.8488
C 8.44096 69.7731 65.9066
C 8.6632 0.572287 67.1256
C 1.5988 67.5714 65.8669
C 0.153527 68.3519 65.8771
C 0.122107 69.5008 64.9495
C 1.0101 0.533947 65.5036
C 8.37598 2.68888 69.6275
O 9.40533 2.07012 69.701
O 6.36887 4.35109 69.4826
C 9.86733 1.40846 66.8241
C 11.0139 0.62702 66.0418
C 68.6902 69.9495 64.859
C 6.91084 68.365 64.3661
C 0.637397 69.1658 63.5811
C 8.91827 69.5839 68.2553
H 4.52009 67.308 65.7464
H 3.84695 3.94569 65.002
H 2.45227 2.87233 64.893
H 2.1787 4.66387 66.8069
H 2.20159 3.01998 67.48
H 3.77321 4.29816 68.8377
H 4.39051 5.25507 67.5016
H 7.12395 68.0476 66.5789
H 8.19756 0.521343 65.201
H 9.36917 69.1987 65.5731
H 1.69639 67.0515 66.821
H 1.67264 66.8318 65.0318
H 0.124257 68.8582 66.9065
H 69.2446 67.6669 65.7788
H 0.664686 0.799053 66.4945
H 1.08415 1.42016 64.8639
H 8.12296 3.38321 0.540016
H 5.7024 4.9787 69.1712
H 10.3123 1.69108 67.8271
H 9.48338 2.37361 66.3402
H 11.4579 69.8493 66.633
H 10.6908 0.216438 65.0523
H 11.8182 1.3302 65.8382
H 68.4285 -0.00841636 63.8122
H 68.5336 0.897823 65.3801
H 67.9999 69.2029 65.2364
H 6.09378 67.571 64.343
H 6.50864 69.227 63.7612
H 7.87612 68.0127 63.9018
H 0.978154 0.0514467 63.0254
H 69.7631 68.7675 62.9488
H 1.59154 68.5975 63.6332
H 9.98023 69.2427 68.2413
H 8.57387 70.0097 69.2317
H 8.22719 68.7402 68.0726
C 20.7887 25.0658 10.4952
C 21.7953 24.0434 10.8091
C 20.2443 23.1458 6.08349
C 21.4755 22.4315 6.13912
C 19.9798 25.1169 9.2771
C 22.4035 23.366 9.65266
C 19.7398 24.0246 7.07966
C 22.1983 22.6932 7.27548
C 20.4565 24.2931 8.22098
C 21.7195 23.4992 8.40836
C 20.4971 25.9875 11.5411
C 20.9586 25.7597 12.8697
C 21.6526 24.5635 13.1258
C 22.0746 23.6886 12.1799
N 18.8795 25.855 9.28922
C 18.4985 26.4372 10.6601
C 19.6818 27.2558 11.258
C 23.5981 22.4667 9.67745
O 24.5591 22.84 10.2743
C 23.8518 21.0624 9.0601
O 22.7533 22.5639 12.5827
O 21.923 21.5621 5.18307
C 18.0258 26.1716 8.10669
C 17.2756 27.3826 10.6861
C 20.6199 26.666 14.0687
C 13.8571 25.9967 5.71509
C 14.37 26.2539 4.42055
C 15.7175 26.0907 4.19658
C 16.5652 25.7777 5.25478
C 16.0995 25.6963 6.57118
C 14.7269 25.8306 6.83206
C 16.9396 25.2921 7.80553
C 18.0141 25.478 4.80956
H 19.587 22.9895 5.2061
H 18.7424 24.4897 6.76943
H 23.1218 22.1377 7.1959
H 21.9747 24.4116 14.1838
H 18.2788 25.5857 11.2699
H 19.3843 27.7935 12.1975
H 20.1052 27.9721 10.4941
H 24.0985 20.3884 9.89097
H 24.6125 21.1396 8.23604
H 22.8879 20.6356 8.65961
H 23.1448 22.1046 11.831
H 21.4577 21.6116 4.37201
H 17.5233 27.1371 8.21458
H 18.7007 26.3236 7.28899
H 16.4571 26.9389 10.1155
H 16.8755 27.4432 11.7037
H 17.5034 28.3803 10.2043
H 21.0003 26.244 15.0073
H 19.509 26.7902 14.1948
H 21.0704 27.6922 13.9226
H 12.7762 26.0963 5.91954
H 13.6756 26.5 3.54986
H 16.1037 26.1882 3.18785
H 14.3381 25.7175 7.84838
H 17.2471 24.2 7.76295
H 16.3235 25.2523 8.7366
H 18.276 24.4432 5.0791
H 18.7586 26.0942 5.37135
H 18.1379 25.6784 3.70734
C 10.9892 68.611 3.55075
C 12.1902 62.4167 7.15717
C 10.5241 67.7496 2.47092
C 11.1198 61.7905 6.29392
C 11.3554 68.0539 4.79933
C 12.3375 63.8244 7.24507
C 9.64303 65.5594 1.57352
C 8.72942 62.2412 5.14763
C 9.01933 64.3423 1.90954
C 8.63339 62.6461 3.66583
C 11.809 65.9755 6.11919
C 10.2542 66.3827 2.64621
C 10.137 62.5716 5.63917
C 9.23073 63.8078 3.23914
C 11.1691 66.6752 5.01514
C 11.5476 64.6235 6.3496
C 10.4821 65.8713 4.00647
C 10.4694 63.9526 5.50272
C 9.99847 64.5965 4.30585
C 11.1911 -0.0192716 3.2508
C 10.9571 0.47297 1.97555
C 10.4864 69.7064 0.915309
C 10.2918 68.3058 1.11162
C 9.94989 67.4261 0.00706696
C 9.47312 66.1408 0.262124
C 13.1691 61.589 7.76048
C 13.1423 60.2369 7.47009
C 12.1663 59.698 6.63104
C 11.1503 60.388 6.06377
C 8.09753 63.7086 0.937452
O 7.37562 62.8087 1.31374
O 14.069 62.1569 8.61609
C 13.0902 66.4695 6.82786
H 11.8295 68.6312 5.55188
H 13.0965 64.2461 7.91427
H 8.47707 61.1916 5.34845
H 8.11248 62.891 5.79806
H 8.10779 62.0323 2.92784
H 11.6506 0.593359 4.00969
H 11.046 1.5669 1.75794
H 10.3769 0.169462 69.9164
H 10.1621 67.757 68.9721
H 9.18612 65.4212 69.4559
H 13.9444 59.6643 7.93642
H 12.1375 58.5563 6.47438
H 10.3993 59.8798 5.51314
H 7.95539 64.0898 69.9386
H 14.6039 61.3546 8.90641
H 13.012 66.3406 7.90946
H 13.3167 67.5168 6.46638
H 13.8816 65.698 6.53639
C 16.4709 16.9726 69.6244
C 17.3945 17.7674 0.438664
C 14.187 23.5809 4.25657
C 15.1509 17.5554 69.1991
S 12.9136 23.786 3.00992
C 15.3129 22.8844 3.87149
C 17.1074 19.1113 0.894533
C 13.1875 21.97 0.864756
C 13.8132 19.9228 69.128
C 15.9875 21.5714 1.76863
C 13.7755 22.5681 2.00942
C 15.0429 22.3921 2.5211
C 14.9376 18.9233 69.3346
C 13.999 20.9848 0.23289
C 15.9292 19.5951 0.167878
C 15.3518 20.8442 0.66979
C 17.7271 19.8828 1.9331
C 17.2837 21.1668 2.25072
C 16.9117 15.646 69.3651
C 18.2163 15.2246 69.7579
C 19.0201 15.985 0.642236
C 18.6474 17.3088 0.962493
C 19.6154 18.2662 1.70171
C 18.9312 19.2331 2.66099
C 13.9487 16.6521 69.0902
O 13.3495 16.2356 0.0504931
O 11.9972 22.3248 0.325522
C 12.4344 19.1829 69.2078
C 16.6185 22.6691 4.68155
C 19.9128 20.3147 2.97334
C 13.8724 20.5954 67.7927
C 15.9826 14.6548 68.671
H 14.0542 24.0942 5.21651
H 17.8349 21.7313 2.98819
H 18.5346 14.2565 69.3381
H 19.9789 15.6863 1.02045
H 20.3303 17.6557 2.31243
H 20.1304 18.9533 0.926079
H 18.6408 18.7093 3.54135
H 13.5102 16.268 68.142
H 11.6404 22.9379 0.961312
H 12.4001 18.5674 0.102608
H 11.6175 19.9895 69.2379
H 12.2435 18.6253 68.2791
H 16.8515 21.5764 4.65546
H 16.518 23.1309 5.70872
H 17.4168 23.1973 4.13086
H 19.6227 20.8565 3.91051
H 20.8954 19.7636 3.12653
H 20.0158 21.0554 2.08651
H 12.8906 21.1515 67.7015
H 14.7095 21.3357 67.7651
H 13.9059 19.8894 66.9299
H 15.4841 13.9749 69.3905
H 16.505 14.0108 67.9483
H 15.0795 15.1198 68.2832
C 54.0681 38.1703 38.3701
C 54.7353 39.4163 38.257
C 55.9594 39.54 37.6415
C 56.5815 38.373 37.1394
C 55.9577 37.0861 37.3018
C 54.6879 37.0163 37.8957
O 57.7641 38.4542 36.5109
C 52.7355 38.1334 39.1215
C 52.4502 40.0145 36.0935
C 57.3604 40.6443 31.7883
C 52.6473 41.424 35.7165
C 56.6666 41.8579 31.8111
C 52.8703 38.9326 35.2732
C 56.7662 39.4502 32.2904
C 53.2778 41.7602 34.4738
C 55.3679 41.9674 32.445
C 54.4782 38.3112 33.2249
C 53.5703 39.2057 34.1036
C 55.4442 39.397 32.6393
C 53.6841 40.5939 33.737
C 54.7676 40.6696 32.7295
C 53.7941 43.0337 33.993
C 54.731 43.1509 33.0344
C 51.9136 39.8237 37.438
C 51.7252 40.886 38.2687
C 51.8993 42.2246 37.8974
C 52.3522 42.5244 36.6272
C 57.7256 38.2742 32.4806
O 58.8898 38.3363 32.2317
C 55.1959 37.2846 34.1121
C 57.3973 43.1365 31.3195
C 51.6154 38.4359 38.0369
H 54.2001 40.2782 38.7073
H 56.4343 40.4993 37.521
H 56.4564 36.1542 36.9112
H 54.2285 36.0297 37.9747
H 58.084 39.3587 36.4013
H 52.7266 38.8607 39.9158
H 52.6219 37.1126 39.5517
H 58.3967 40.6147 31.4483
H 52.7341 37.9496 35.7472
H 53.8898 37.773 32.4555
H 53.3196 43.9339 34.4392
H 55.1795 44.1348 32.7514
H 51.4157 40.6813 39.3246
H 51.646 43.0329 38.6375
H 52.4981 43.5645 36.2848
H 57.3084 37.3476 32.9403
H 55.6491 36.4251 33.4895
H 56.0255 37.7224 34.7815
H 54.4185 36.7624 34.7716
H 57.7949 43.7274 32.1606
H 56.6872 43.7899 30.7991
H 58.182 42.8257 30.5942
H 51.6206 37.6628 37.2539
H 50.625 38.4656 38.5556
C 58.4414 62.8013 65.6045
C 58.8322 63.2595 66.9809
N 62.5989 64.6926 63.912
C 63.0395 64.7438 65.1629
C 59.223 63.1404 64.4695
C 60.1453 63.696 67.2349
C 61.3913 64.2479 63.7004
C 62.2522 64.4495 66.295
C 60.4145 63.8912 64.7216
C 60.9014 64.0469 66.1116
C 57.3414 61.878 65.5305
C 56.7579 61.3779 66.697
C 57.1769 61.9351 67.9689
C 58.0292 63.0156 68.1303
C 58.7819 62.6153 63.0966
C 57.287 62.2338 63.1223
C 57.0604 61.2097 64.1837
C 64.4884 64.8257 65.6274
O 64.8622 64.3917 66.6904
C 65.2574 65.5756 64.784
C 56.4339 63.4196 63.3946
C 56.9499 61.2189 69.3289
C 60.7637 63.5162 68.6463
C 66.8637 63.1266 64.6872
C 66.1604 63.5138 63.5286
C 66.2703 62.7548 62.3083
C 67.4303 61.9476 62.1988
C 68.2058 61.6458 63.3423
C 67.8873 62.2178 64.5779
O 65.4427 64.5752 63.5904
C 65.2183 63.0529 61.1878
C 67.8981 61.3084 60.858
H 61.0018 64.0544 62.6942
H 62.6513 64.4927 67.3014
H 56.0888 60.5149 66.7186
H 58.2442 63.3047 69.1557
H 59.4099 61.7363 62.7775
H 59.0368 63.3289 62.2861
H 57.0151 61.7422 62.1818
H 56.0036 60.8559 64.1558
H 57.6038 60.2339 64.0187
H 64.6151 66.3949 64.3642
H 66.2213 65.835 65.249
H 55.4086 63.1565 63.7594
H 56.8037 64.0363 64.2494
H 56.3118 64.0019 62.4479
H 57.1753 61.9024 0.140634
H 57.6688 60.38 69.452
H 55.985 60.6748 69.361
H 59.9834 63.53 69.449
H 61.4105 62.5823 68.5329
H 61.4405 64.3697 68.8708
H 66.7268 63.6409 65.6435
H 69.0848 60.9958 63.269
H 68.5719 62.0256 65.4514
H 64.8544 64.1488 61.2663
H 65.568 62.906 60.1186
H 64.2999 62.4357 61.3486
H 67.1385 61.538 60.0466
H 68.9213 61.7089 60.6523
H 68.0326 60.238 61.108
C 43.3694 60.927 34.2128
C 44.6479 61.52 33.9168
C 45.1919 59.9098 38.7814
C 46.5235 60.2834 38.2092
C 43.1526 60.4699 35.5411
N 45.6402 61.4911 34.7727
C 44.1311 60.0594 37.8311
C 46.5973 61.0057 36.9216
C 44.2407 60.4312 36.4472
C 45.5432 61.0019 35.9355
C 42.4076 60.8477 33.0791
C 42.5236 61.8299 32.0158
C 43.7691 62.5823 31.8718
C 44.819 62.2974 32.7653
C 45.174 59.5224 40.1823
C 46.3566 59.2876 40.8266
C 47.6217 59.627 40.2248
C 47.6809 60.2125 38.9796
C 41.2552 60.0035 32.9159
C 40.3982 60.1968 31.883
C 40.4526 61.2469 30.9199
C 41.529 62.0609 31.0
C 42.7425 59.7929 38.3648
O 42.1183 60.5011 39.1206
O 43.8942 63.5232 30.9193
O 41.8951 60.1463 35.9965
O 44.0149 59.2325 40.8267
O 41.1345 58.9271 33.7024
C 47.5997 62.0078 36.6644
C 51.21 61.8037 35.7526
C 52.1979 62.5868 35.2649
C 51.8891 63.7913 34.6015
C 50.5257 64.2114 34.4737
C 49.5005 63.4027 35.023
C 49.8539 62.2284 35.6988
O 49.0076 61.4706 36.2833
H 45.7986 62.8062 32.623
H 46.4588 58.809 41.8543
H 48.5212 59.57 40.8051
H 48.6502 60.6087 38.6389
H 39.568 59.443 31.8779
H 39.6509 61.3245 30.0795
H 41.7036 62.8593 30.2075
H 42.1733 58.9074 37.9693
H 44.7677 63.9638 31.0067
H 41.3087 60.479 35.2633
H 44.1865 58.9538 41.6902
H 40.3485 58.4263 33.3328
H 47.3584 62.6441 35.8041
H 47.7244 62.5603 37.6119
H 51.4275 60.8696 36.2574
H 53.2759 62.3298 35.3221
H 52.7046 64.4151 34.2063
H 50.227 65.1859 33.9506
H 48.4613 63.7452 34.899
N 59.2337 20.0109 64.0587
C 58.8593 18.9293 64.6581
C 59.3739 18.4644 65.908
C 60.4093 19.1486 66.4623
C 60.8779 20.3095 65.8211
C 60.2608 20.6708 64.6042
C 60.9289 21.9761 64.2927
O 61.885 21.9415 63.5806
C 60.7729 23.1511 65.3027
O 57.8686 18.1648 64.3802
C 59.2831 23.2457 65.667
C 51.047 19.4255 62.7474
C 51.2804 20.826 62.4277
C 55.8444 18.8388 62.7612
C 55.7021 19.0976 61.3372
C 52.1543 18.6721 63.1222
C 52.4879 21.2357 61.9399
C 54.6673 18.7611 63.5428
C 54.6088 19.896 61.012
C 53.4347 19.3468 63.0877
C 53.558 20.2518 61.9293
C 52.0226 17.1245 63.3375
C 53.5376 16.7214 63.1636
C 54.3552 17.4863 64.2958
C 54.0624 15.2384 63.1106
C 50.1011 21.8291 62.5761
C 54.3351 19.9282 59.5049
C 57.0348 17.9679 63.0418
C 56.65 15.9723 59.8499
C 57.1855 15.725 61.1179
C 56.3644 15.3198 62.1632
C 54.9767 15.2585 61.8815
C 54.3849 15.4205 60.6222
C 55.2864 15.7539 59.5955
C 54.8005 15.8622 58.1507
O 55.5548 16.2346 57.2478
H 58.9866 17.5115 66.3166
H 60.7908 18.8124 67.4187