37918
Lattice='70.0 0.0 0.0 0.0 70.0 0.0 0.0 0.0 70.0' Properties=species:S:1:pos:R:3 Timestep:=T pbc=F F F 1229=T Atoms.=T
C 66.1054 2.3368 68.1896
C 66.3065 3.51046 67.4053
C 65.4502 3.78023 66.3858
C 64.3365 2.88995 66.1569
C 64.1729 1.68841 66.8805
C 65.0745 1.37613 67.9208
C 67.1679 2.14584 69.1903
O 67.2444 1.2221 -0.0351906
C 64.9962 0.0547448 68.7217
H 67.1465 4.19139 67.5952
H 65.56 4.65876 65.743
H 63.5974 3.20242 65.3812
H 63.3435 1.03288 66.6832
H 68.0155 2.87553 69.1139
H 64.4676 0.155313 69.7337
H 66.0062 69.7194 68.9312
H 64.5345 69.3248 68.0331
C 53.8215 63.909 26.9538
C 54.7157 64.1703 27.9868
C 55.1272 65.5194 28.0679
C 54.8579 66.5029 27.0966
C 53.8778 66.1838 26.1325
C 53.3757 64.8942 26.0467
C 55.5098 67.8773 27.1458
O 55.4466 68.6347 26.2083
O 55.2218 63.1886 28.785
O 53.5027 67.0747 25.1822
O 53.2386 62.6567 26.8699
C 55.9498 66.0523 29.2594
H 52.6097 64.6357 25.3109
H 55.9348 68.3627 28.0837
H 54.7589 62.4184 28.4823
H 52.8404 66.6483 24.6146
H 52.5407 62.6687 26.2133
H 55.4406 66.9015 29.7655
H 56.1142 65.2291 30.0017
H 56.8766 66.4247 28.737
C 65.294 63.0568 65.0848
C 65.9666 63.6847 66.1835
C 66.7151 64.8882 65.9738
C 66.8104 65.499 64.7161
C 66.1984 64.8242 63.631
C 65.4207 63.693 63.8302
C 64.4825 61.8441 65.3114
O 64.1614 61.4551 66.4174
C 63.8881 60.875 64.2558
C 65.9724 63.0272 67.5322
O 66.8161 63.3697 68.3402
C 65.0338 60.2647 63.379
C 67.3907 66.902 64.3704
C 64.6406 63.2569 62.5654
C 67.3896 65.5924 67.1729
C 66.4239 65.4136 62.1958
H 63.1639 61.3992 63.6542
H 63.2526 60.112 64.7754
H 65.2924 62.1725 67.8177
H 64.6242 59.6309 62.5644
H 65.6649 59.645 63.9712
H 65.6206 61.0376 62.8529
H 66.6275 67.5219 63.8727
H 67.6033 67.5198 65.2741
H 68.3482 66.824 63.8202
H 64.4549 64.1569 61.8952
H 63.6276 62.9144 62.8685
H 65.2648 62.6509 61.8457
H 66.6904 65.7831 67.9834
H 68.1979 64.9587 67.5508
H 67.7568 66.5434 66.9137
H 67.4991 65.705 62.155
H 66.2292 64.628 61.398
H 65.7359 66.2617 62.0099
C 62.3017 64.5649 63.6487
C 61.3557 63.4426 63.9165
C 60.2436 64.385 59.5455
C 62.4143 65.285 62.3609
C 60.5082 63.0326 62.88
C 61.3285 65.1253 59.9256
N 59.743 63.5529 60.5157
C 61.5507 64.7431 61.3315
C 60.5543 63.7005 61.6327
C 63.0493 65.1009 64.6923
C 62.9627 64.4076 65.9642
C 62.0956 63.2266 65.97
N 61.297 62.8116 65.07
C 63.8912 66.2928 64.5001
C 64.497 66.8388 65.713
C 64.2961 66.1921 66.9488
C 63.6341 64.9541 67.1023
C 64.0031 66.925 63.2222
C 63.2533 66.4357 62.2146
C 62.1933 66.1232 59.1637
C 63.5578 64.2317 68.4504
H 59.7825 64.4874 58.5245
H 59.7218 62.2155 62.9822
H 58.9841 62.7978 60.4318
H 62.0569 62.7358 66.9397
H 65.2021 67.6727 65.6281
H 64.7845 66.5781 67.8513
H 64.6061 67.8001 63.1304
H 63.1802 66.8361 61.193
H 61.9454 66.0927 58.0596
H 63.2706 65.956 59.3669
H 62.0562 67.1594 59.574
H 63.0201 63.2646 68.4089
H 64.5755 63.8409 68.7786
H 63.1738 64.8672 69.2852
N 60.4717 9.45105 7.21979
C 60.985 10.31 6.38773
N 62.1775 10.4464 5.94096
C 63.0231 9.52176 6.32995
C 62.6559 8.41948 7.14768
C 61.2909 8.53375 7.60596
C 64.4716 9.72245 6.00818
O 65.2395 9.3067 6.83793
O 63.3788 7.41366 7.52163
C 64.9823 1.26004 7.30462
C 64.0241 1.34111 8.32275
C 63.531 2.57272 8.75631
C 63.9158 3.77003 8.11613
C 64.7662 3.63576 6.97256
C 65.3389 2.4264 6.62691
C 63.8129 5.15953 8.73887
O 64.3164 5.32731 9.77884
C 62.856 6.12383 8.24905
O 65.6488 0.123642 7.04008
O 66.3778 2.41564 5.71044
H 60.2327 11.0401 6.12442
H 60.9276 7.80278 8.34785
H 64.8087 10.525 5.26723
H 63.7785 0.409377 8.88699
H 62.8468 2.5665 9.61032
H 65.0769 4.51489 6.39508
H 62.2657 5.6694 7.4182
H 62.271 6.64743 9.05467
H 65.4658 69.5595 7.80896
H 67.1273 2.99676 5.96063
C 24.0688 25.928 32.6516
C 23.9129 24.5435 32.6323
C 22.2576 25.4769 36.8571
C 23.5915 26.7294 33.7756
C 23.5046 23.849 33.883
C 22.6011 26.5908 36.1841
N 22.6419 24.2523 36.2781
C 23.1713 26.0289 34.8984
C 23.112 24.5538 34.9847
C 24.3966 26.6992 31.3954
C 24.4209 25.821 30.2095
C 24.5399 24.4229 30.486
N 24.2914 23.825 31.6068
C 24.348 28.119 31.3233
C 24.2201 28.7109 30.0702
C 24.0481 27.8755 28.9528
C 24.192 26.4981 28.9926
C 23.489 22.361 33.8749
O 23.02 21.7399 34.7892
O 24.3008 30.0316 29.8717
C 22.4404 28.1154 36.384
H 21.6937 25.5205 37.7963
H 23.5843 27.7972 33.8114
H 22.3319 23.3367 36.7158
H 24.7829 23.8851 29.6264
H 24.3981 28.658 32.259
H 23.8642 28.3647 27.9974
H 23.9933 25.8981 28.1096
H 23.6135 21.7535 32.9986
H 24.2502 30.4927 30.7018
H 23.0546 28.7087 35.6579
H 22.759 28.3844 37.4088
H 21.3736 28.3976 36.2432
C 66.4554 21.8326 61.8446
C 66.49 20.3167 61.8838
C 65.5468 22.1526 66.549
C 65.4944 20.6554 66.5909
C 66.1961 22.6456 62.9471
C 66.0696 19.7111 63.072
C 65.692 22.8455 65.3307
C 65.2594 19.9253 65.3609
C 65.8632 22.0552 64.1724
C 65.6787 20.5614 64.1571
C 66.8164 22.4781 60.6301
C 67.6732 21.7283 59.7398
C 67.7521 20.3093 59.8481
C 67.0469 19.5758 60.7818
C 65.4242 22.8321 67.8282
C 65.6412 22.1056 68.9947
C 66.2049 20.7662 68.8937
C 65.8925 20.0069 67.7888
C 66.2062 24.2022 62.7258
C 65.6346 24.5655 61.3924
C 66.4012 23.948 60.2854
O 66.7633 18.2615 60.5429
C 65.1747 22.7379 0.32754
C 67.0339 19.9454 69.8878
H 66.0863 18.6143 63.2551
H 65.7403 23.9403 65.3968
H 65.0635 18.8467 65.3199
H 68.1866 22.2579 58.894
H 68.3502 19.7889 59.106
H 65.0851 23.8675 67.9061
H 66.0571 18.9753 67.7966
H 67.2585 24.5773 62.7105
H 65.6151 24.7129 63.4801
H 64.5461 24.3204 61.3584
H 65.699 25.6655 61.2749
H 65.8117 24.0314 59.3075
H 67.3185 24.5661 60.0916
H 66.0322 17.9725 61.0488
H 66.0434 23.0908 0.863468
H 64.4624 23.5881 0.0895655
H 64.6329 21.9805 0.927584
H 67.2329 18.9186 69.4602
H 66.5625 19.813 0.901585
H 67.9888 20.5021 0.0774204
C 3.06742 50.0896 69.0542
C 3.50605 51.2634 68.2796
C 1.08491 48.2427 64.9899
C 1.92445 49.2076 64.2169
C 2.38539 49.0096 68.3846
C 3.29896 51.2837 66.9004
C 1.04107 48.2094 66.3967
C 2.42066 50.3622 64.8175
C 1.95668 49.1444 67.0328
C 2.45935 50.322 66.1984
C 3.56153 50.0946 0.403935
C 4.24466 51.1078 1.04939
C 4.69215 52.195 0.224498
C 4.33196 52.2292 68.901
C 0.460418 47.2655 64.1228
N 0.774617 47.1336 62.9126
C 1.72166 47.8672 62.3252
C 2.35276 48.9478 62.8537
C 2.15051 47.6862 69.1506
C 3.24791 47.6102 0.280556
C 3.29882 48.817 1.21161
C 3.9674 52.2962 66.0107
O 3.26097 53.125 65.4856
C 5.26932 51.7423 65.4247
O 69.4812 46.5249 64.6848
O 2.08194 47.5981 61.0431
H 0.455608 47.4356 66.8971
H 2.90871 51.1792 64.2531
H 4.46025 50.9906 2.10935
H 5.29914 53.0149 0.649546
H 4.77138 53.0711 68.2761
H 2.99846 49.6397 62.264
H 1.13744 47.7895 69.628
H 2.25733 46.7406 68.5433
H 2.94055 46.745 0.906455
H 4.25626 47.3714 -0.142405
H 4.05528 48.6291 2.05121
H 2.38479 48.9967 1.74803
H 5.07664 50.775 64.8815
H 6.02226 51.5621 66.201
H 5.69831 52.4126 64.668
H 69.1186 46.0852 63.9707
H 2.7957 48.1308 60.6427
C 60.2185 5.33496 6.07998
C 59.401 5.86287 7.20859
C 59.5255 9.28682 3.30333
C 59.0133 9.92606 4.45008
C 60.598 6.31405 5.12484
C 58.7662 7.1156 7.08799
C 59.9327 7.98959 3.49728
C 58.589 9.33392 5.63367
C 59.7957 7.45147 4.82756
C 58.9276 7.9654 5.9409
C 60.7538 4.01956 6.06158
C 60.6092 3.1131 7.11501
C 60.0544 3.64725 8.30332
C 59.4901 4.97127 8.33271
C 61.6684 3.63042 4.87015
O 62.861 3.56879 5.10359
C 60.3562 2.67673 9.39873
O 60.6323 1.50173 9.30221
C 60.7412 3.19077 10.7849
C 61.6022 4.37906 10.4638
C 61.2491 1.70931 6.87882
C 59.0755 11.4461 4.18868
C 58.8868 5.56088 9.60908
C 62.0346 6.24581 4.53962
H 59.8051 9.81723 2.38617
H 58.2662 7.49208 7.99784
H 60.4358 7.4139 2.73775
H 58.15 9.90655 6.43273
H 61.3814 3.48077 3.86054
H 61.283 2.3516 11.3597
H 59.8567 3.40218 11.4001
H 61.7414 4.43631 9.34938
H 61.0868 5.31383 10.7673
H 62.5898 4.36379 10.9732
H 60.5363 0.917536 7.04603
H 62.0805 1.54275 7.58735
H 61.6004 1.66887 5.83238
H 58.4993 11.751 3.2971
H 60.1233 11.8172 3.96408
H 58.6569 11.9857 5.09607
H 59.3607 6.57467 9.7701
H 57.8042 5.83243 9.5069
H 58.9901 4.82395 10.4382
H 62.6643 5.79039 5.33798
H 61.9814 5.58387 3.68494
H 62.3515 7.29437 4.38882
C 4.92497 2.41202 6.81469
C 3.9158 2.35654 7.88644
C 1.99539 69.1629 4.60311
C 0.963009 69.6503 5.54033
C 4.85702 1.46263 5.67504
C 2.9204 1.37649 7.96926
C 3.27075 69.8148 4.54492
C 1.35755 0.358764 6.67156
C 3.70737 0.573141 5.64671
C 2.7437 0.653222 6.80045
C 6.10637 3.18651 7.11734
C 6.25602 3.9155 8.3618
C 5.15966 3.92937 9.35576
C 3.98965 3.32707 9.00678
C 1.56366 68.1 3.73406
C 0.194744 67.8547 3.53712
C 69.1813 68.5908 4.24437
C 69.5387 69.481 5.2161
C 7.09385 3.38081 6.04692
C 8.09616 4.40297 6.24024
C 8.00272 5.2848 7.34335
C 7.17321 5.00154 8.45646
C 6.80566 2.70262 4.83277
C 5.83126 1.73818 4.63497
S 8.1102 3.15301 3.61597
C 68.3336 0.202942 5.83474
H 2.26949 1.27719 8.84321
H 3.94285 69.7352 3.67239
H 0.68301 0.76656 7.39087
H 5.21584 4.51637 10.2433
H 3.08672 3.50566 9.61639
H 2.26672 67.5283 3.11026
H 69.8662 67.04 2.90312
H 68.1468 68.4327 3.9766
H 8.88076 4.57529 5.51137
H 8.48791 6.24776 7.38359
H 7.17286 5.63217 9.26306
H 5.73969 1.24587 3.70253
H 9.27048 3.27274 4.27606
H 67.5366 0.418516 5.07688
H 67.8648 69.603 6.64342
H 68.5519 1.20103 6.32834
C 12.7993 54.4401 21.9235
C 13.3843 53.291 21.227
C 14.8099 56.5578 18.2188
C 13.1191 55.7855 21.4932
C 14.1953 53.4105 20.0673
C 14.1738 57.003 19.3395
C 15.2202 55.0919 18.3319
C 13.8097 55.8943 20.2019
C 14.3626 54.6927 19.5927
C 11.9742 54.2931 23.0654
C 11.4789 52.9381 23.4453
C 12.0832 51.8449 22.7494
C 13.0272 51.9332 21.6139
C 11.4559 55.3806 23.8474
C 10.4236 55.1305 24.871
C 9.85572 53.8634 24.9746
C 10.3139 52.7331 24.2906
C 11.9054 56.655 23.5171
C 12.6265 56.8453 22.3644
C 11.6394 50.5345 23.2162
C 12.1344 49.41 22.4279
C 13.1812 49.5289 21.4767
C 13.6237 50.7844 21.014
N 9.92963 51.5173 24.5881
C 10.5028 50.4741 24.1449
C 14.4957 52.1712 19.1467
C 14.6669 50.8412 19.9234
C 13.0161 58.302 22.195
O 12.5913 59.2018 22.8732
C 13.4371 51.9015 18.0088
C 16.067 50.7705 20.5138
H 15.295 57.3149 17.5406
H 13.955 58.0476 19.581
H 16.3174 54.982 18.4451
H 14.8445 54.4977 17.4691
H 10.0577 55.9633 25.502
H 9.02152 53.7864 25.6642
H 11.6993 57.4782 24.1369
H 11.617 48.4118 22.5418
H 13.6441 48.5956 21.0605
H 10.0925 49.4808 24.4464
H 15.4295 52.4812 18.7729
H 14.5676 50.0014 19.1909
H 13.7246 58.5107 21.3221
H 13.9065 51.3178 17.1407
H 12.5571 51.3237 18.415
H 13.0014 52.8372 17.6078
H 16.7819 50.454 19.7415
H 16.4197 51.7668 20.8601
H 16.1414 50.0855 21.3732
C 35.7876 48.2051 65.3985
C 35.8026 48.9433 64.1979
C 36.1285 50.268 64.2896
N 36.3778 50.9413 65.3651
C 36.3374 50.304 66.4593
C 36.0809 48.9207 66.5843
C 36.0542 50.9839 62.9683
O 35.7801 50.3994 61.935
C 36.4962 50.9491 67.8981
C 38.2676 55.9911 0.626637
C 37.0662 55.2132 0.833525
C 39.9778 51.8916 69.19
C 39.5391 55.4667 0.100333
C 37.0089 53.8213 0.447065
C 40.5031 53.1168 69.4335
C 38.4676 51.8772 69.3942
C 39.4543 54.0232 69.8491
C 38.2166 53.28 69.9338
C 38.1545 57.3577 0.944076
C 36.8994 57.8958 1.47669
N 35.8761 57.1114 1.71283
C 35.9406 55.8816 1.42199
C 39.3442 58.2037 0.565725
C 39.2282 59.5937 0.834933
C 38.0915 60.0145 1.50399
C 36.9921 59.2298 1.81877
C 40.4996 57.6753 -0.0521246
C 40.6394 56.31 69.7856
C 37.8924 51.6332 67.8682
H 35.642 47.0968 65.433
H 35.6158 48.3854 63.2524
H 36.092 48.4448 67.5591
H 36.3712 52.0883 62.8336
H 35.6172 51.6198 68.102
H 36.4325 50.1139 68.6832
H 40.5456 50.999 68.897
H 36.0945 53.2676 0.567443
H 41.5755 53.4689 69.3929
H 38.0812 51.0257 0.0124613
H 35.0322 55.2478 1.60802
H 40.0612 60.2478 0.510529
H 38.0212 61.09 1.68684
H 36.1207 59.7385 2.233
H 41.3175 58.3831 69.7054
H 41.5569 55.8007 69.3786
H 38.6301 50.9944 67.3175
H 37.8477 52.6595 67.4165
C 31.9266 49.6961 65.9486
C 32.0298 48.9677 67.2061
C 33.0512 45.5575 64.3694
C 32.3963 49.1364 64.732
C 32.8356 47.7561 67.2992
C 32.9154 46.7381 63.7323
N 33.2388 45.688 65.7787
C 32.7962 47.7513 64.8654
C 32.9754 47.0445 66.0927
C 31.3147 51.0201 65.9546
C 30.5022 51.4483 67.0924
C 30.4999 50.5889 68.229
C 31.4507 49.5157 68.3864
C 31.384 51.9284 64.8292
C 30.7394 53.164 64.8314
C 30.0076 53.6061 65.9464
C 29.8338 52.7429 67.0412
C 32.2625 49.8046 63.3841
C 32.2537 51.3994 63.6986
N 33.371 47.3642 68.4899
C 33.1941 48.3141 69.6293
C 31.7192 48.9391 69.7645
C 29.4227 50.8117 69.2628
C 29.508 52.3427 69.5091
C 28.9183 53.0581 68.2229
O 30.8351 53.971 63.7465
O 29.8006 54.9845 66.0101
C 34.5156 46.4387 68.5884
C 34.3247 45.1941 69.4275
H 33.1094 44.6659 63.8033
H 32.7298 46.9394 62.6469
H 33.2074 44.9095 66.4513
H 31.2566 49.502 63.0463
H 32.9837 49.4017 62.6443
H 33.2812 51.5416 64.0263
H 32.1222 52.0692 62.7787
H 33.4149 47.7859 0.620372
H 33.9571 49.1296 69.5252
H 31.551 49.6243 0.593537
H 31.0018 48.0981 0.0562959
H 29.6068 50.1745 0.196307
H 28.4073 50.4236 68.9151
H 29.0365 52.6156 0.429762
H 30.5467 52.6599 69.6898
H 27.8087 52.834 68.0329
H 28.9053 54.1457 68.3789
H 30.1629 54.6414 63.9694
H 29.2156 55.1303 66.759
H 34.8119 46.0893 67.5725
H 35.371 47.0369 69.0225
H 33.7279 44.4151 68.8708
H 33.8861 45.4403 0.427119
H 35.3689 44.7894 69.5649
C 55.1488 1.26976 0.191647
C 54.4003 0.720245 1.33413
C 58.0899 67.6676 1.18242
C 56.2531 0.48858 69.6228
C 54.7506 69.4448 1.97553
C 57.9204 68.589 0.20569
C 57.0149 67.9742 2.26935
C 56.6987 69.3861 0.442732
C 55.9981 68.9109 1.57778
C 54.8688 2.54216 69.6372
C 53.8498 3.34413 0.280095
C 52.91 2.68517 1.19984
C 53.2261 1.41381 1.72117
C 55.8348 3.1035 68.6824
C 55.7697 4.50154 68.4513
C 54.7031 5.2581 68.9646
C 53.7957 4.73725 69.9564
C 56.7362 2.17913 67.9889
C 56.9896 0.897174 68.4619
C 57.8883 69.7522 67.9284
C 58.7627 69.0938 69.0004
C 53.8779 68.7153 2.91779
C 52.4564 69.1749 2.78287
C 52.3012 0.804533 2.80729
C 52.0782 68.7212 1.29959
C 54.4237 68.8591 4.30167
C 52.7656 1.38042 4.1692
C 57.4794 2.88091 66.8468
H 58.954 66.9793 1.31699
H 56.574 67.0738 2.78354
H 57.4943 68.5302 3.08944
H 52.005 3.25555 1.61098
H 56.4504 4.9717 67.7966
H 54.5899 6.3214 68.7202
H 53.0823 5.46595 0.422669
H 57.168 69.0278 67.473
H 58.4489 0.195966 67.1577
H 59.4804 68.2784 68.6506
H 59.3935 69.9518 69.3994
H 53.9061 67.6055 2.69667
H 51.8127 68.7187 3.52623
H 51.2112 1.12646 2.66637
H 51.1968 68.0181 1.28902
H 51.8753 69.6956 0.729692
H 52.8941 68.2631 0.724816
H 53.6574 69.0385 5.06006
H 54.9178 67.9165 4.66265
H 55.1638 69.6968 4.27974
H 52.3099 0.782809 5.03826
H 53.9217 1.3471 4.18101
H 52.426 2.41468 4.22092
H 57.7338 3.9279 67.1162
H 58.4466 2.39284 66.6507
H 56.7546 2.93339 65.983
C 44.078 67.1353 62.1427
N 42.9527 67.1369 61.5122
C 42.5418 65.9796 61.0565
N 43.1394 64.7679 61.2077
C 44.2688 64.7652 61.8494
C 44.8101 65.9164 62.3865
C 44.5189 68.4434 62.6609
O 45.5745 68.6235 63.2633
C 44.9977 63.4327 62.0823
C 46.0443 65.8552 63.3194
N 47.2184 63.2131 64.0632
C 51.2485 62.4472 66.7702
C 47.7783 62.4974 64.9666
C 49.965 61.9453 66.3847
C 47.8017 64.2833 63.6073
C 51.8416 63.5723 66.1788
C 49.9746 65.8692 63.8611
C 51.1316 65.7434 64.5996
C 49.1393 62.6942 65.4873
C 49.1259 64.6926 64.0573
C 51.056 64.4475 65.3655
C 49.7685 63.9015 65.0186
C 47.236 61.2859 65.7445
C 48.332 60.1722 65.9565
C 49.373 60.6914 67.0333
C 47.2864 65.2877 62.5947
C 48.2924 66.3808 62.0609
C 49.3734 67.0078 62.9956
H 41.654 65.8867 60.4478
H 44.0032 69.4089 62.3999
H 45.9941 63.3203 61.5158
H 45.2282 63.3276 63.1504
H 44.4433 62.5634 61.692
H 45.8286 65.2968 64.2588
H 46.3642 66.8792 63.7076
H 51.9782 61.9835 67.3963
H 52.8786 63.8607 66.3312
H 51.9138 66.523 64.7338
H 46.8853 61.6347 66.7437
H 46.3605 60.8932 65.1371
H 48.8642 59.8871 65.025
H 47.8296 59.2522 66.3136
H 50.1197 59.8976 67.1855
H 48.7729 60.9223 67.9531
H 46.8736 64.8152 61.6627
H 48.8949 65.9299 61.228
H 47.7133 67.1882 61.4969
H 48.9664 67.7461 63.7111
H 50.1581 67.4639 62.4048
C 52.972 66.336 69.0395
C 53.1565 67.5152 68.3179
C 53.587 67.3856 66.9786
C 54.122 66.2096 66.4925
C 54.1502 65.0706 67.3127
C 53.3947 65.135 68.4837
C 54.7961 67.424 64.2988
C 54.534 67.619 62.9026
C 54.0542 5.61958 64.7713
C 55.3087 68.3402 65.2381
C 53.6725 5.32832 63.4837
C 54.727 68.924 62.4383
C 54.5755 4.45865 65.544
C 54.0811 3.25683 61.9216
C 54.4387 1.93941 61.9627
C 55.3974 1.03783 65.5976
C 54.0374 3.92445 63.188
C 55.3122 69.6837 64.8735
C 54.5539 3.36234 64.3988
C 54.9563 69.9068 63.48
C 54.8215 1.33936 63.2321
C 55.0226 2.05053 64.4748
C 54.4753 69.4889 61.0159
C 54.8057 0.963667 60.8273
O 54.1275 66.5794 62.1828
O 53.753 3.87582 60.765
C 53.531 3.90386 66.5573
C 54.5443 66.083 64.9977
C 54.1274 7.05291 65.3643
H 52.46 66.359 0.00855828
H 52.8129 68.4865 68.663
H 53.5045 68.3411 66.3961
H 54.625 64.1276 66.9778
H 53.1416 64.1844 68.9976
H 55.6303 68.0262 66.2457
H 53.4228 6.10315 62.7434
H 55.5794 4.66762 66.0335
H 54.7022 0.965394 66.4747
H 56.4376 1.09531 66.041
H 55.0495 68.8842 60.2493
H 53.3446 69.4767 60.7992
H 55.8902 1.05705 60.6915
H 54.4421 1.32755 59.8223
H 54.0773 66.7539 61.1472
H 53.3828 4.75708 60.8389
H 54.0967 3.11779 67.1466
H 52.6556 3.52871 65.9424
H 53.2279 4.67136 67.2587
H 55.35 65.433 64.9198
H 53.7413 65.551 64.4734
H 53.5684 7.7478 64.728
H 55.2112 7.30098 65.4346
H 53.7345 6.94958 66.4159
C 10.5141 12.478 68.6188
C 9.15817 12.5932 68.3986
C 2.4374 7.19446 0.675552
C 11.0422 11.3692 69.2732
C 3.17795 6.31421 1.53528
C 3.03622 8.2692 69.9633
C 8.30941 11.5008 68.6394
C 5.5344 5.76612 2.59565
C 6.77972 6.37942 2.87079
N 10.3717 9.41263 0.885416
C 8.72855 7.95022 2.03887
C 5.46037 9.32921 69.334
C 4.60312 6.4046 1.65327
C 10.2146 10.3768 69.8217
C 4.42134 8.38355 69.9846
C 7.39251 7.38673 2.02272
C 9.1278 8.82315 1.03076
C 8.89246 10.394 69.3401
C 6.75887 8.99681 0.060457
C 5.11692 7.53033 0.909657
C 8.13628 9.30064 0.0847921
C 6.50492 7.94565 1.0353
C 2.53665 5.38969 2.57879
C 3.59371 4.21705 2.60897
C 5.05162 4.44945 3.20098
C 7.72114 6.0381 4.04883
C 9.11075 6.08854 3.522
C 9.45468 7.57344 3.33126
O 2.26679 9.1366 69.236
C 5.06264 10.7895 69.5989
C 4.14747 11.3279 68.5617
C 1.16063 4.7981 2.15757
C 12.5962 11.3839 69.1693
H 11.2492 13.2864 68.4029
H 8.72212 13.5631 68.0097
H 1.37607 7.11689 0.667772
H 7.24782 11.5817 68.3848
H 11.1986 9.34877 1.48798
H 5.5567 9.08443 68.2776
H 2.45908 5.93965 3.54192
H 3.66926 3.82692 1.5826
H 3.16739 3.33853 3.03976
H 5.67854 3.56708 3.00856
H 5.15143 4.53291 4.31152
H 7.44 5.07051 4.39333
H 7.52377 6.66667 4.96158
H 9.20491 5.52643 2.6013
H 9.8204 5.67477 4.2514
H 9.15206 8.21127 4.22897
H 10.5291 7.74491 3.0741
H 2.79979 9.57499 68.6171
H 4.63025 10.9463 0.590819
H 5.95363 11.4568 69.7141
H 4.27648 10.8412 67.5355
H 3.04488 11.4149 68.82
H 4.36939 12.3848 68.2604
H 1.30196 3.76256 1.85281
H 0.413895 4.82178 2.97715
H 0.694547 5.36278 1.33502
H 12.9975 12.3878 69.2532
H 12.8996 10.939 68.1823
H 12.9736 10.8288 0.0779572
C 67.4584 35.5784 34.9453
C 67.4457 34.5144 33.9078
C 67.6546 38.2592 31.1156
C 67.5073 36.9439 34.5486
C 67.612 34.8853 32.5177
C 67.6497 38.5699 32.426
N 67.5932 36.8656 30.892
C 67.6228 37.2684 33.1732
C 67.6688 36.2494 32.1541
C 67.4086 35.2124 36.3543
C 67.1344 33.9252 36.697
C 67.1075 32.8926 35.6724
C 67.2232 33.1859 34.2851
C 67.5223 38.0719 35.6232
C 66.9049 37.5846 36.8956
C 67.6664 36.3788 37.3335
C 67.6402 33.8251 31.4424
C 67.5978 32.3325 32.0654
C 66.6806 32.2297 33.1849
C 67.5874 39.3647 30.1168
C 67.1259 40.8045 30.7652
C 67.8505 41.0309 32.0651
C 67.4068 39.9764 33.0366
C 67.2915 31.4799 36.1765
O 66.4638 30.9377 36.8474
O 66.79 33.5032 37.9434
C 66.5574 30.855 33.6665
C 65.83 29.8874 32.6559
C 67.4952 42.3577 32.6241
C 68.9498 34.0793 30.6259
C 69.3383 40.8968 32.006
C 65.3199 32.7407 32.8351
H 67.3556 36.4615 29.9707
H 68.5773 38.337 35.9006
H 67.0145 39.0385 35.3544
H 67.1009 38.4067 37.677
H 65.8289 37.3978 36.8213
H 67.4118 36.1015 38.406
H 68.7728 36.5928 37.4545
H 66.7932 33.8797 30.7
H 68.6053 31.9226 32.3761
H 67.2938 31.7 31.2149
H 66.8669 39.0587 29.2864
H 68.5377 39.5129 29.5332
H 66.0126 40.7184 30.9624
H 67.4 41.6569 30.0733
H 66.3235 40.0456 33.3493
H 67.9759 40.0822 34.0031
H 68.2205 30.8555 35.9487
H 66.8905 34.2986 38.4877
H 65.9249 30.8598 34.6008
H 67.5727 30.4932 33.9494
H 64.8767 30.2917 32.3369
H 66.4972 29.7701 31.7991
H 65.5206 28.9534 33.1664
H 67.9967 42.5705 33.6133
H 66.3803 42.514 32.7026
H 67.8453 43.15 31.912
H 68.7352 34.6809 29.6827
H 69.7184 34.635 31.2266
H 69.3989 33.1248 30.2761
H 69.8272 40.5562 32.9619
H 69.8024 41.9185 31.8538
H 69.6338 40.2829 31.1247
H 64.994 32.4262 31.8174
H 64.5154 32.3803 33.5605
H 65.3135 33.8569 32.8738
C 18.1272 1.84292 54.0567
C 16.8786 2.33736 54.6461
C 19.8279 0.778873 58.4035
C 18.5553 1.00374 58.976
C 19.1523 1.05792 54.7418
C 16.5507 1.83926 55.9602
C 20.0866 1.00371 57.0789
C 17.535 1.47571 58.1795
C 19.0153 1.21785 56.1597
C 17.709 1.55859 56.7696
C 18.4967 2.43847 52.8006
C 17.843 3.68039 52.5447
C 16.4522 3.8233 52.8944
C 15.9735 3.19683 54.0025
N 20.0803 0.379539 54.0756
C 19.851 0.294878 52.603
C 19.4097 1.59197 51.8857
C 15.116 1.59183 56.315
O 14.4185 1.09894 55.4692
C 14.3798 2.23234 57.5135
O 14.7902 3.6446 54.5753
O 18.4096 0.64106 60.2878
C 21.2822 69.6364 54.5573
C 20.9011 69.5873 51.7493
C 18.3955 5.03939 52.0138
C 21.0131 3.3614 53.6377
C 20.836 3.66835 54.9506
C 21.7948 3.26629 55.9008
C 22.7392 2.32278 55.5869
C 22.5939 1.65195 54.2926
C 21.9424 2.367 53.2544
C 22.7366 0.148015 54.1677
C 23.8727 1.80519 56.4779
H 20.7132 0.513193 58.9788
H 21.084 0.941267 56.7511
H 16.6296 1.73239 58.7243
H 15.8359 4.56359 52.4256
H 18.9678 69.6813 52.396
H 18.9576 1.39802 50.9393
H 20.2967 2.16546 51.5937
H 14.3763 1.58062 58.3801
H 13.2892 2.34998 57.2894
H 14.8588 3.19247 57.7363
H 14.7781 3.49607 55.5364
H 18.994 0.000306533 60.6235
H 21.1779 69.5777 55.631
H 21.2235 68.5711 54.0999
H 21.1943 68.632 52.2331
H 20.5618 69.3228 50.7524
H 21.8237 0.19264 51.678
H 17.9262 5.84399 52.5865
H 17.9566 5.3099 51.03
H 19.509 5.19037 51.9337
H 20.3689 3.80309 52.8956
H 19.9785 4.28474 55.2684
H 21.7679 3.6684 56.891
H 22.0102 2.0109 52.2279
H 23.4609 69.6993 54.8339
H 22.9977 -0.17264 53.1107
H 23.5925 0.849093 56.9462
H 24.1208 2.58448 57.2386
H 24.7639 1.67905 55.8139
C 35.9352 16.2378 43.6402
C 37.0568 10.4426 47.936
C 36.0644 17.0955 44.8531
C 37.1103 11.3581 49.1463
C 36.4309 14.8812 43.693
C 36.7667 10.9327 46.678
C 36.5069 17.4914 47.2415
C 37.371 13.5948 50.2534
C 36.4773 16.8959 48.4785
C 37.2083 15.0874 49.9701
C 36.5873 12.9002 45.219
C 36.5456 16.6149 46.0524
C 37.1265 12.748 48.9471
C 36.8728 15.5333 48.7112
C 36.6277 14.2839 44.9906
C 36.7778 12.3153 46.4797
C 36.7262 15.2028 46.2018
C 36.9787 13.2275 47.6644
C 36.8942 14.6635 47.495
C 35.3224 16.7378 42.4778
C 34.8857 18.0561 42.429
C 35.1231 18.9464 43.4473
C 35.7274 18.5112 44.6452
C 35.9012 19.4175 45.7834
C 36.2833 18.9018 47.0054
C 37.2999 9.04129 48.0898
C 37.3315 8.55884 49.404
C 37.2148 9.37428 50.5695
C 37.1352 10.7551 50.4554
C 36.1531 17.6064 49.7892
O 37.0017 18.2599 50.3222
O 37.3996 8.17733 47.0559
C 36.2068 12.0644 43.9792
H 36.4359 14.2868 42.7701
H 36.6392 10.1857 45.9359
H 36.6226 13.3479 51.0544
H 38.3832 13.4068 50.6997
H 37.27 15.7699 50.7937
H 35.0306 16.0652 41.677
H 34.3544 18.4187 41.517
H 34.774 19.9747 43.3734
H 35.6442 20.4702 45.746
H 36.3349 19.5391 47.8961
H 37.3924 7.43715 49.5817
H 37.2117 8.86006 51.5222
H 37.0352 11.3432 51.3575
H 35.3116 17.3267 50.5198
H 37.7737 7.328 47.3044
H 35.4958 12.5775 43.374
H 35.7598 11.0844 44.2156
H 37.1256 11.855 43.4135
C 7.13622 68.1742 68.3117
C 7.14886 69.6375 68.1482
C 69.8057 2.79837 67.2118
C 6.00434 67.4984 68.96
S 69.1187 1.31118 67.8178
C 1.14106 2.92711 67.204
C 5.86473 0.261496 68.1707
C 1.11315 69.4719 68.6592
C 3.30494 68.0303 69.6319
C 3.16494 1.38499 67.8165
C 0.84558 0.71533 68.174
C 1.77653 1.70897 67.7736
C 4.72882 68.1237 69.0503
C 2.41106 69.1251 68.9485
C 4.67176 69.4703 68.5121
C 3.37155 0.0726709 68.4666
C 5.61147 1.66634 67.7556
C 4.30934 2.21817 67.4839
C 8.26348 67.602 67.5855
C 9.31898 68.3637 67.0046
C 9.19835 69.7625 66.8708
C 8.15461 0.455135 67.5468
C 8.16852 1.9807 67.6824
C 6.79823 2.43716 68.2746
C 6.39005 66.1617 69.4696
O 5.6186 65.4201 0.0290511
O 69.9421 68.5367 68.7775
C 3.45845 68.2577 1.10175
C 1.75612 4.30377 66.8384
C 6.49881 3.87336 67.96
C 2.85225 66.6393 69.3767
C 8.19569 66.1861 66.9922
H 69.1508 3.58848 66.9027
H 4.17433 3.18568 67.153
H 10.2769 67.9086 66.6071
H 9.99016 0.406693 66.4012
H 9.03348 2.42819 68.2353
H 8.2805 2.50069 66.7039
H 6.83299 2.2317 69.3429
H 7.48923 65.8372 69.3845
H 69.1393 69.0764 68.8105
H 4.09336 69.1548 1.33021
H 2.40478 68.3649 1.44875
H 3.78614 67.3274 1.54605
H 1.16935 5.10389 67.3291
H 1.75571 4.52677 65.7163
H 2.75754 4.49959 67.151
H 5.54355 4.26115 68.2387
H 7.24367 4.48758 68.4369
H 6.28407 3.91645 66.9051
H 1.8573 66.4204 69.8265
H 2.73037 66.5271 68.2772
H 3.60001 65.9137 69.7707
H 8.29256 66.1721 65.8505
H 7.23227 65.7793 67.3041
H 8.95156 65.4415 67.3939
C 41.9379 60.256 9.09465
C 43.0709 59.4846 9.1369
C 43.2979 58.5785 8.08338
C 42.3941 58.4057 7.04707
C 41.1951 59.1864 7.08814
C 40.9965 60.102 8.05789
O 42.6174 57.566 6.01902
C 41.7925 61.3726 10.1526
C 44.1977 61.4715 7.82728
C 44.7645 58.181 1.83944
C 45.4819 60.7594 7.72344
C 45.695 57.7803 2.75874
C 43.2693 61.5847 6.7647
C 43.8722 59.3027 2.07589
C 45.7733 59.9736 6.52848
C 45.8453 58.4192 4.04108
C 42.9667 61.013 4.1301
C 43.6153 61.0382 5.56517
C 43.8145 59.9417 3.34816
C 44.8004 60.2294 5.46312
C 44.8577 59.5073 4.24543
C 46.811 59.0411 6.26573
C 46.7857 58.2446 5.09927
C 43.9458 62.0998 9.13295
C 44.9328 62.1638 10.1142
C 46.2002 61.5392 9.9062
C 46.4501 60.7996 8.75581
C 43.0015 59.83 0.962965
O 43.2448 59.6146 69.7952
C 41.5639 60.4085 4.18826
C 46.7148 56.6793 2.40535
C 42.5819 62.6328 9.54877
H 43.8318 59.5918 9.92303
H 44.2043 58.019 7.99512
H 40.5181 59.0991 6.22266
H 40.1182 60.7512 8.02436
H 43.48 57.1814 6.09718
H 42.1653 61.0416 11.1323
H 40.7458 61.7377 10.2361
H 44.7527 57.6972 0.846479
H 42.3648 62.2007 6.87988
H 42.9712 61.9536 3.56446
H 47.5785 58.9139 6.98888
H 47.6456 57.4966 5.04372
H 44.7283 62.7011 11.0811
H 47.0047 61.5294 10.6698
H 47.4053 60.2824 8.53127
H 42.2082 60.5993 1.20199
H 40.9676 60.568 3.22243
H 41.6172 59.2944 4.44165
H 40.8841 60.9416 4.93001
H 47.7743 57.0558 2.44784
H 46.5033 56.2309 1.39385
H 46.7185 55.8495 3.16547
H 41.9724 63.0408 8.69867
H 42.7161 63.4116 10.2723
C 67.1497 9.36834 61.4467
C 66.7604 9.36406 59.9935
N 66.4159 4.59326 61.5469
C 65.927 4.57694 60.2828
C 67.0831 8.17476 62.1881
C 66.2931 8.19497 59.3527
C 66.8537 5.66746 62.0731
C 65.9686 5.74189 59.4778
C 66.8147 6.94468 61.498
C 66.4176 6.9569 60.0384
C 67.5739 10.6016 62.0547
C 67.8954 11.6951 61.275
C 67.5466 11.622 59.8788
C 66.9621 10.5558 59.2262
C 67.3982 8.21349 63.7006
C 67.1844 9.61475 64.3107
C 68.0247 10.6324 63.5672
C 64.9359 3.63803 59.6993
O 64.2841 4.03651 58.7616
C 64.4363 2.55542 60.5101
C 65.7355 9.98417 64.3177
C 68.0717 12.7863 59.0076
C 65.8872 8.06178 57.8669
C 63.8118 69.9022 59.273
C 64.8978 0.0553599 60.1284
C 65.8088 68.9582 60.3343
C 65.7339 67.8162 59.5263
C 64.6459 67.7005 58.6325
C 63.7032 68.7168 58.511
O 65.0944 1.18461 60.7396
C 66.9567 69.0854 61.3546
C 66.8636 66.7516 59.5233
H 67.2476 5.67919 63.1231
H 65.6135 5.73508 58.4344
H 68.4462 12.5319 61.7311
H 66.7838 10.5713 58.1529
H 68.4297 7.92903 63.8688
H 66.7806 7.4869 64.3323
H 67.6197 9.54987 65.3384
H 68.0476 11.6436 64.0413
H 69.1111 10.3656 63.5506
H 64.7262 3.04473 61.5358
H 63.3593 2.36372 60.2771
H 65.5536 11.0316 64.6826
H 65.3202 9.92307 63.3036
H 65.0793 9.25392 64.9039
H 67.7647 12.6872 57.943
H 69.1869 12.814 59.0905
H 67.6506 13.7478 59.415
H 65.9487 9.03968 57.2815
H 66.6234 7.33952 57.3554
H 64.8618 7.53323 57.7462
H 63.0687 0.714459 59.1053
H 64.5207 66.795 58.0022
H 62.8319 68.6189 57.78
H 67.8706 69.463 60.8533
H 66.755 69.8066 62.1998
H 67.1557 68.1068 61.883
H 66.4466 65.6995 59.4927
H 67.5477 66.9051 58.618
H 67.4794 66.907 60.4755
C 69.112 63.0802 43.3285
C 69.16 63.9925 42.1419
C 1.21762 59.8177 40.3018
C 1.70827 60.9434 39.5059
C 69.9392 61.951 43.2461
N 69.7649 63.6777 41.0767
C 0.680522 60.1254 41.5861
C 1.21089 62.2602 39.7824
C 0.33788 61.5041 41.933
C 0.37414 62.536 40.9435
C 68.5052 63.5904 44.5802
C 68.0164 65.0264 44.5435
C 68.0675 65.8682 43.3698
C 68.5664 65.2958 42.2023
C 1.43879 58.4931 39.7937
C 2.33172 58.2653 38.7493
C 2.97772 59.3657 38.1158
C 2.6931 60.6397 38.4763
C 68.2611 62.9184 45.7694
C 67.902 63.5928 46.9329
C 67.5465 64.9592 46.8627
C 67.6122 65.6954 45.7217
C 0.619432 59.0296 42.5588
O 0.256182 59.0158 43.7182
O 67.6497 67.1234 43.4648
O 0.502839 61.3379 44.3216
O 0.775907 57.4365 40.2787
O 68.4676 61.5761 46.0171
C 1.51388 63.3853 38.8378
C 2.89915 62.685 35.4244
C 4.0173 63.0165 34.7061
C 4.79681 64.1335 34.9729
C 4.41922 64.9349 36.0572
C 3.37711 64.5082 36.9338
C 2.62623 63.3592 36.6292
O 1.69173 62.913 37.4023
H 68.6198 65.943 41.3228
H 2.46098 57.2757 38.3056
H 3.71393 59.2572 37.2631
H 3.27625 61.3524 37.929
H 67.8255 63.0425 47.8625
H 67.1149 65.391 47.7395
H 67.2867 66.7303 45.66
H 1.07618 58.038 42.3029
H 67.7957 67.5114 42.6041
H 0.0901238 61.63 45.1297
H 0.961199 56.5872 39.7877
H 68.6305 61.3862 46.9701
H 0.725603 64.224 38.7969
H 2.44199 63.8744 39.161
H 2.25298 61.8348 35.145
H 4.27228 62.4362 33.8045
H 5.61578 64.4456 34.3166
H 4.95681 65.8568 36.2891
H 3.16025 65.0944 37.8266
N 43.8862 11.2421 57.8126
C 44.8974 11.4553 57.0321
C 44.8044 11.5582 55.6939
C 43.485 11.666 55.1647
C 42.4294 11.4508 56.0138
C 42.6988 11.2364 57.3573
C 41.5799 11.1631 58.3753
O 40.4002 11.3396 58.1486
C 42.1224 10.8635 59.8068
O 46.0337 11.73 57.6136
C 42.8342 9.51085 59.8335
C 42.7635 17.4588 60.5061
C 43.234 17.4976 61.8606
C 45.2325 13.1485 59.7585
C 45.4194 13.0866 61.1657
C 43.1516 16.4025 59.6663
C 43.999 16.4625 62.3438
C 44.2791 14.1442 59.335
C 44.9349 14.1182 61.9514
C 43.9522 15.2981 60.1194
C 44.3777 15.3785 61.5035
C 42.7877 16.578 58.181
C 43.5995 15.5186 57.3926
C 43.4792 14.0712 58.0308
C 43.1793 15.2427 55.8821
C 42.8801 18.6389 62.8445
C 44.9157 13.8928 63.4789
C 46.0237 11.9742 59.1737
C 46.4473 13.4999 53.6102
C 45.2566 13.9615 53.0436
C 44.1933 14.4991 53.7884
C 44.3816 14.5652 55.1913
C 45.5409 14.0988 55.8004
C 46.5781 13.6287 54.9994
C 47.8873 13.1671 55.6236
O 48.8519 12.9044 54.9494
H 45.7132 11.6642 55.1172
H 43.4042 11.9298 54.1059
H 41.4341 11.6253 55.6197
H 42.7632 11.7122 60.1208