37918
Lattice='70.0 0.0 0.0 0.0 70.0 0.0 0.0 0.0 70.0' Properties=species:S:1:pos:R:3 Timestep:=T pbc=F F F 1229=T Atoms.=T
C 60.6485 40.8994 16.5842
C 61.9958 40.6681 16.4296
C 62.8582 40.7679 17.5243
C 62.3714 40.9491 18.8181
C 61.0061 41.2574 19.0068
C 60.1533 41.232 17.897
C 59.8414 40.8075 15.3072
O 58.809 41.4038 15.0841
C 58.6888 41.5301 18.252
H 62.4749 40.5356 15.4598
H 63.9876 40.6008 17.3669
H 63.0701 41.0433 19.7073
H 60.6224 41.4387 20.0351
H 60.2952 40.211 14.4959
H 58.5182 42.5452 18.5707
H 58.3646 41.0941 19.2195
H 57.9477 41.2342 17.4386
C 68.2206 7.70707 58.7493
C 68.5297 7.06605 59.9601
C 69.716 6.4124 60.1273
C 0.786817 6.5987 59.1593
C 0.484495 7.27425 57.9822
C 69.1824 7.7201 57.7163
C 2.21273 6.20932 59.3169
O 2.60773 5.4836 60.1949
O 67.5919 7.23208 60.9257
O 1.52403 7.54484 57.1366
O 67.0246 8.32082 58.5045
C 69.8775 5.60379 61.4163
H 68.9388 8.12852 56.7252
H 2.96237 6.48026 58.517
H 66.8063 7.65331 60.6208
H 1.00425 7.99519 56.4352
H 66.6391 8.0649 57.6799
H 69.4527 6.18022 62.2856
H 69.2262 4.66533 61.402
H 0.891541 5.19873 61.6529
C 62.3686 65.176 65.759
C 62.3122 63.738 65.9084
C 61.1363 63.0064 65.4785
C 59.9802 63.7698 65.2376
C 59.9959 65.1722 65.1095
C 61.2115 65.8275 65.3302
C 63.616 65.95 66.0686
O 63.9806 66.8663 65.3694
C 64.2568 65.9396 67.4697
C 63.3412 62.9966 66.7445
O 63.2963 61.7878 66.8205
C 63.0745 66.3053 68.3452
C 58.7103 62.8831 65.2366
C 61.1067 67.3746 65.211
C 61.0833 61.4655 65.7059
C 58.8292 66.1147 64.7559
H 65.0248 66.7122 67.55
H 64.67 64.9504 67.7377
H 64.0986 63.5197 67.3815
H 63.4946 66.7783 69.2678
H 62.5041 65.3827 68.617
H 62.3629 67.0215 67.86
H 58.4249 62.6293 66.2613
H 57.9376 63.498 64.7725
H 58.914 61.9174 64.7076
H 60.359 67.7731 65.9544
H 60.8181 67.6619 64.1816
H 62.0509 67.8616 65.4203
H 62.0195 60.9978 65.2895
H 61.0251 61.1726 66.7986
H 60.1415 61.0534 65.2739
H 59.1816 66.7792 63.925
H 57.9466 65.5356 64.5091
H 58.6013 66.7689 65.6447
C 44.2811 2.47808 8.78198
C 44.2925 2.92753 7.4185
C 48.3735 2.32925 8.55084
C 45.1001 1.43696 9.36605
C 45.3546 2.27803 6.6737
C 47.6916 1.48482 9.37971
N 47.8468 2.5588 7.29145
C 46.3823 1.33418 8.66011
C 46.5116 1.96207 7.40626
C 43.6581 3.40189 9.74784
C 43.0323 4.58805 9.17976
C 42.9339 4.71434 7.72279
N 43.4988 3.89888 6.96718
C 43.8416 3.16593 11.1133
C 43.3474 4.12484 12.0615
C 42.8857 5.31424 11.5558
C 42.7036 5.60815 10.1512
C 44.5012 1.96802 11.6875
C 45.0548 1.09078 10.7896
C 48.1063 0.875571 10.7315
C 42.4002 7.04073 9.72399
H 49.2848 2.87276 8.88841
H 45.3877 2.4487 5.56315
H 47.8626 3.5698 7.02445
H 42.429 5.56217 7.15087
H 43.5042 3.85687 13.1241
H 42.4932 6.12967 12.2155
H 44.6475 1.84529 12.7326
H 45.5825 0.171185 11.1524
H 48.2299 69.8188 10.6808
H 47.3172 1.11634 11.4934
H 49.0248 1.34417 11.1229
H 43.2503 7.69146 10.1017
H 42.4067 7.08854 8.61964
H 41.4836 7.3661 10.2584
N 2.53263 18.4336 2.79616
C 3.671 18.0263 2.27458
N 3.9194 17.4935 1.14129
C 2.82314 17.2262 0.459855
C 1.51644 17.2918 0.914908
C 1.51352 18.148 2.05853
C 3.09649 17.0706 68.9969
O 2.20088 17.1099 68.1718
O 0.46056 16.3803 0.674101
C 68.6958 10.0589 69.0552
C 67.6559 10.8408 69.6229
C 67.7601 12.2576 69.6414
C 68.9864 12.923 69.5355
C 0.0928011 12.0323 69.2298
C 69.8829 10.7171 68.8265
C 69.1108 14.4084 69.7093
O 68.0953 15.0398 69.8662
C 0.417985 14.9863 69.8687
O 68.5023 8.7049 68.867
O 0.860622 10.0602 68.1147
H 4.5494 18.2422 2.86924
H 0.534544 18.4654 2.39773
H 4.12418 17.2473 68.6311
H 66.7215 10.3935 -0.0801628
H 66.8427 12.8118 69.8507
H 1.07026 12.3554 69.2837
H 0.994372 14.1481 0.353898
H 0.902433 15.3069 68.8993
H 67.7741 8.33205 69.3228
H 1.70635 10.4836 67.9592
C 7.23588 13.1436 66.9437
C 7.73817 14.503 66.9263
C 3.07493 15.0548 66.8708
C 5.955 12.8422 67.539
C 6.70553 15.4891 67.0976
C 3.44797 13.8415 67.4501
N 4.15175 15.8825 66.6766
C 4.92266 13.8246 67.4132
C 5.29739 15.1929 66.9599
C 8.21145 12.1586 66.4991
C 9.53961 12.6246 66.2095
C 9.88216 14.009 66.5068
N 9.00631 14.8664 66.787
C 8.01579 10.7573 66.3518
C 9.0181 9.95466 65.9013
C 10.2439 10.4008 65.5641
C 10.6061 11.7705 65.7402
C 7.23877 16.8102 67.5086
O 6.54468 17.8006 67.6029
O 8.83423 8.62915 65.6303
C 2.35754 12.7667 67.6808
H 2.05851 15.375 66.5641
H 5.74205 11.7984 67.8133
H 4.07429 16.9038 66.4014
H 10.9088 14.4462 66.4313
H 7.02832 10.3659 66.5776
H 11.0137 9.72881 65.1575
H 11.5822 12.2513 65.3825
H 8.29243 16.9803 67.8861
H 7.97144 8.37096 66.0571
H 2.62434 12.091 68.5351
H 2.07241 12.11 66.8021
H 1.3789 13.2509 67.7319
C 52.9609 16.6217 0.926888
C 52.4183 15.5769 0.0202707
C 57.2241 16.577 68.6778
C 56.7005 15.4982 67.7457
C 54.2899 16.98 0.975228
C 53.3581 14.9632 69.1505
C 56.5238 16.9342 69.8499
C 55.53 14.8007 68.0908
C 55.2012 16.4382 0.0513471
C 54.6987 15.3583 69.1413
C 51.9239 17.3277 1.68569
C 50.5981 16.9986 1.62813
C 50.1863 15.9253 0.769407
C 51.0362 15.216 -0.0385043
C 58.4206 17.2753 68.2697
C 58.814 17.1447 66.9311
C 58.347 16.0737 66.1101
C 57.3443 15.2339 66.4898
C 54.7239 18.1709 1.89158
C 53.7498 18.4598 2.9707
C 52.3257 18.6206 2.39419
O 50.4742 14.3594 69.0732
C 60.0091 18.0228 66.4585
C 58.7961 16.0517 64.6235
H 53.0562 14.1858 68.4667
H 56.9755 17.6483 0.53105
H 55.2103 13.9838 67.4284
H 49.9003 17.5897 2.21455
H 49.1187 15.6605 0.833266
H 58.9172 18.0375 68.905
H 56.9409 14.4195 65.889
H 54.7408 19.0707 1.168
H 55.7222 17.9862 2.34752
H 53.7051 17.5749 3.64561
H 54.0397 19.3163 3.59887
H 51.5986 18.8526 3.19903
H 52.3145 19.4753 1.6333
H 51.1179 13.8346 68.5042
H 59.6088 18.8804 65.917
H 60.5858 18.4299 67.3204
H 60.6941 17.4399 65.8069
H 58.7589 17.0893 64.1942
H 58.1392 15.3879 64.0217
H 59.8434 15.7129 64.5987
C 64.1368 36.0344 21.5389
C 64.0573 34.8271 20.6404
C 60.1323 37.886 19.617
C 60.4199 36.9878 18.3781
C 62.9737 36.8554 21.7151
C 62.9956 34.6947 19.7293
C 60.8664 37.6884 20.8331
C 61.3334 35.9426 18.4571
C 61.943 36.7597 20.7927
C 62.0629 35.775 19.6732
C 65.3701 36.3907 22.1003
C 66.501 35.5528 21.9117
C 66.3825 34.3201 21.235
C 65.1826 33.9149 20.6376
C 59.1316 38.7706 19.4494
N 58.5625 38.9932 18.329
C 58.7911 38.3291 17.2596
C 59.6899 37.2787 17.1928
C 62.9494 38.0429 22.7
C 64.2107 38.0143 23.5368
C 65.4711 37.816 22.6832
C 63.0133 33.6302 18.6624
O 63.9813 33.4759 17.9576
C 61.7655 32.8097 18.3407
O 58.797 39.4453 20.5982
O 58.2259 38.5808 16.0695
H 60.7136 38.3115 21.6893
H 61.716 35.3047 17.6151
H 67.4942 35.8819 22.3273
H 67.3 33.6597 21.1948
H 65.1767 32.9934 19.9939
H 59.8766 36.7415 16.2147
H 62.9226 39.0417 22.1999
H 62.0072 37.9233 23.2535
H 64.3382 38.9275 24.1619
H 64.1866 37.1986 24.2872
H 66.4494 37.7944 23.2432
H 65.5286 38.627 21.9307
H 61.5728 32.1039 19.1854
H 61.8434 32.2232 17.4012
H 60.845 33.464 18.446
H 57.9681 39.814 20.4469
H 58.5217 38.0571 15.3375
C 43.1648 16.7034 27.117
C 42.1181 15.8024 27.6452
C 43.8578 13.5088 23.5181
C 42.8497 12.6789 24.1448
C 43.9555 16.3413 25.9753
C 41.6983 14.6488 26.948
C 44.1926 14.7421 24.0676
C 42.004 13.164 25.1191
C 43.5702 15.1467 25.2615
C 42.419 14.3562 25.7617
C 43.2399 17.9726 27.7666
C 42.5024 18.2365 28.9372
C 41.773 17.209 29.6046
C 41.548 16.0211 28.9433
C 44.2382 19.0238 27.2366
O 44.0015 20.1309 26.8115
C 41.0648 17.3569 30.979
O 41.6282 17.0128 31.9729
C 39.5798 17.6585 30.9652
C 39.2172 18.4016 29.6709
C 42.3828 19.6377 29.592
C 42.745 11.185 23.7916
C 40.5824 14.9782 29.5964
C 45.2045 17.1067 25.5197
H 44.4089 13.0884 22.6331
H 40.9371 14.0239 27.3435
H 45.0281 15.304 23.6548
H 41.1805 12.6006 25.5658
H 45.3109 18.7515 27.304
H 39.1987 18.153 31.9068
H 39.0009 16.6763 30.9927
H 40.0864 18.9325 29.2243
H 38.9816 17.6244 28.9151
H 38.3321 19.0675 29.8808
H 42.8403 19.6411 30.6397
H 41.3219 19.9215 29.8762
H 42.757 20.448 28.9158
H 41.7327 10.7838 24.0781
H 43.5467 10.5931 24.2969
H 43.0425 10.9492 22.7586
H 39.6287 14.8509 29.0287
H 41.0459 13.9551 29.5731
H 40.3975 15.1959 30.6858
H 44.9561 18.107 25.0338
H 45.8881 17.3009 26.3741
H 45.8576 16.4206 24.9326
C 64.4352 2.0711 4.47675
C 65.9043 2.12461 4.35026
C 64.3361 69.7267 0.211625
C 65.7702 0.11804 -0.00630245
C 63.5754 1.49245 3.48655
C 66.517 1.71036 3.14194
C 63.6139 0.195225 1.36475
C 66.4813 0.781567 1.01408
C 64.2638 0.984615 2.31622
C 65.7296 1.15443 2.15099
C 63.9423 2.41545 5.76608
C 64.8337 2.72225 6.90553
C 66.1828 2.22413 6.80376
C 66.6786 1.92673 5.56949
C 63.6768 69.0608 69.1674
C 64.3382 68.8455 67.9681
C 65.7097 69.2088 67.6874
C 66.386 69.8437 68.7342
C 62.5187 2.45983 5.99512
C 62.0853 3.27136 7.10326
C 62.9983 3.90896 7.96169
C 64.3719 3.63812 7.91007
C 61.6199 1.95393 4.95685
C 62.1391 1.42491 3.78953
S 59.8765 2.45437 5.01195
C 67.8405 0.3021 68.5455
H 67.5806 1.68322 3.00316
H 62.5146 69.9976 1.4499
H 67.5721 0.972626 0.999454
H 66.7975 2.14195 7.70289
H 67.7315 1.51165 5.52681
H 62.606 68.805 69.2933
H 63.8074 68.3799 67.1009
H 66.1302 69.0901 66.6836
H 61.0039 3.45046 7.23343
H 62.5953 4.62004 8.68805
H 65.048 4.05057 8.66418
H 61.5411 0.95662 2.98353
H 59.7549 2.45706 6.35312
H 68.2512 0.0716957 67.5381
H 67.9595 1.37267 68.7349
H 68.5037 69.8509 69.3128
C 21.9316 50.6616 56.2337
C 22.3506 49.3066 55.9647
C 22.0376 49.1457 60.6581
C 21.7257 51.2071 57.5865
C 22.5662 48.42 57.0609
C 21.8241 50.394 60.1846
C 22.1089 48.0433 59.6371
C 21.9038 50.2701 58.6528
C 22.2452 48.9273 58.3397
C 21.5144 51.5283 55.1942
C 21.6328 51.1159 53.7816
C 22.2725 49.8702 53.5453
C 22.5171 48.8958 54.5558
C 20.9795 52.8904 55.4281
C 20.7644 53.6972 54.2566
C 20.9818 53.2505 53.0141
C 21.395 51.9318 52.6101
C 21.1181 53.444 56.7237
C 21.3896 52.573 57.7514
C 22.6665 49.4866 52.1775
C 23.2709 48.2546 51.9186
C 23.6498 47.3859 52.9603
C 23.2229 47.683 54.2679
N 21.6858 51.5406 51.3622
C 22.3091 50.443 51.1417
C 23.4616 47.2241 56.8265
C 23.599 46.6523 55.3549
C 21.553 53.2701 59.0861
O 20.8152 54.142 59.4612
C 24.858 47.6986 57.0918
C 22.4243 45.5753 55.3702
H 22.0773 48.9428 61.7369
H 21.6411 51.3224 60.7644
H 21.2088 47.428 59.6636
H 22.9677 47.3775 59.8099
H 20.4803 54.7354 54.4146
H 20.9523 54.0052 52.198
H 21.0219 54.5339 56.9291
H 23.6568 48.01 50.9023
H 24.2107 46.4092 52.839
H 22.4297 50.1771 50.0726
H 23.1667 46.4057 57.5144
H 24.5703 46.2091 55.1142
H 22.4334 52.9439 59.7026
H 25.5822 46.8387 57.051
H 25.1337 48.4579 56.3331
H 25.0011 48.1411 58.0979
H 22.793 44.686 55.9274
H 21.5269 46.024 55.8381
H 22.0902 45.329 54.337
C 64.1124 28.4915 67.9148
C 64.7641 27.8872 69.0798
C 65.6796 28.6763 69.7744
N 66.0128 29.8962 69.4313
C 65.4522 30.4336 68.3755
C 64.5362 29.7964 67.5916
C 66.293 28.0023 0.959372
O 65.7425 27.0389 1.43385
C 65.755 31.9086 67.9623
C 68.6783 36.0596 0.612406
C 69.007 35.2051 69.4492
C 64.2696 35.0489 69.498
C 67.3536 36.2202 1.13342
C 67.8984 34.5543 68.7688
C 64.8484 35.5998 0.560119
C 65.2602 34.3172 68.5798
C 66.323 35.515 0.401683
C 66.6221 34.7494 69.2685
C 69.7518 36.8109 1.16246
C 1.07509 36.7005 0.473592
N 1.28739 35.9255 69.4477
C 0.337119 35.1939 68.97
C 69.458 37.7666 2.20866
C 0.476608 38.6556 2.57231
C 1.70127 38.6538 1.95384
C 1.992 37.657 0.933298
C 68.1359 37.8636 2.81778
C 67.0975 37.1472 2.21166
C 64.9432 32.8157 68.918
H 63.3496 27.947 67.3392
H 64.529 26.9041 69.4474
H 64.0969 30.3265 66.7101
H 67.2136 28.414 1.48013
H 66.8433 32.1068 68.1277
H 65.4991 32.0372 66.8864
H 63.1845 35.1388 69.3643
H 68.0804 33.8664 67.9102
H 64.3875 36.2303 1.34776
H 65.0765 34.5089 67.4887
H 0.578765 34.484 68.0908
H 0.251134 39.4271 3.31623
H 2.49694 39.4609 2.26473
H 3.00178 37.8037 0.509158
H 67.8984 38.5436 3.60045
H 66.0732 37.3456 2.51444
H 63.8159 32.6635 68.8179
H 65.1556 32.5954 -0.0406526
C 67.5051 50.9724 -0.0574033
C 67.0237 50.7406 68.5755
C 68.6799 54.9803 68.371
C 67.9212 52.1843 0.429439
C 67.1186 51.7981 67.5947
C 68.3835 54.5581 69.5875
N 68.2835 54.1169 67.3322
C 67.9196 53.1727 69.3976
C 67.7777 52.9552 67.9474
C 67.639 49.8316 0.828114
C 67.2347 48.4918 0.35174
C 66.7287 48.3651 69.0338
C 66.5184 49.4517 68.1645
C 68.2014 49.8735 2.13364
C 68.5226 48.7408 2.88411
C 68.3835 47.4744 2.30066
C 67.7189 47.3246 1.06696
C 68.2754 52.4861 1.90663
C 68.5196 51.2135 2.80762
N 66.3728 51.658 66.439
C 65.3945 50.5813 66.3836
C 65.7782 49.2322 66.803
C 66.4109 47.0168 68.278
C 67.3213 45.946 68.9429
C 67.2455 45.9875 0.493537
O 69.022 48.8335 4.16047
O 68.9673 46.3803 2.92476
C 66.1955 52.7749 65.5125
C 65.3527 52.5207 64.2275
H 69.0203 55.9818 68.1941
H 68.3673 55.0913 0.57074
H 68.671 54.1504 66.3348
H 67.4591 53.086 2.38241
H 69.0801 53.197 2.0111
H 69.5689 51.1527 3.12539
H 68.1327 51.2775 3.84435
H 64.5647 50.886 67.09
H 64.8558 50.4997 65.3565
H 66.5572 48.8982 66.1061
H 64.9097 48.508 66.9786
H 66.529 46.9408 67.1948
H 65.3552 46.8658 68.6751
H 67.069 44.9013 68.5633
H 68.3784 46.1049 68.6445
H 66.1915 46.0661 0.767949
H 67.6887 45.0683 0.92966
H 69.3714 47.9658 4.40683
H 68.733 45.6134 2.43507
H 65.7236 53.6685 65.9911
H 67.1813 53.213 65.3026
H 64.2107 52.4633 64.4042
H 65.5022 51.5364 63.8373
H 65.675 53.2814 63.484
C 10.7264 0.193083 15.0327
C 11.5941 69.6793 16.097
C 14.6636 69.5133 12.4728
C 11.3788 0.667453 13.7971
C 13.0272 69.6157 15.958
C 13.5486 0.336702 12.4053
C 14.7733 68.9904 13.9255
C 12.7955 0.370737 13.7023
C 13.5773 69.6618 14.6604
C 9.32695 0.132 15.0557
C 8.67812 69.525 16.1901
C 9.4825 69.1024 17.3303
C 10.8804 69.0921 17.2196
C 8.50159 0.593182 13.9018
C 7.12569 0.325779 13.9301
C 6.56155 69.6496 15.0364
C 7.26379 69.2898 16.1853
C 9.22485 0.877862 12.6987
C 10.6518 0.889861 12.5885
C 11.3469 1.10695 11.2492
C 12.89 1.22076 11.3458
C 13.9598 69.0701 17.0173
C 13.1181 67.9327 17.6926
C 11.7201 68.3757 18.2838
C 12.8101 67.0621 16.4012
C 14.2026 0.0695488 18.1353
C 11.7242 69.4027 19.3739
C 8.44701 0.970062 11.3863
H 15.342 69.2008 11.7014
H 14.728 67.8991 13.9813
H 15.6567 69.3546 14.3976
H 9.02162 68.6775 18.2705
H 6.37176 0.519195 13.1937
H 5.45084 69.4094 15.0263
H 6.69364 68.8562 17.0225
H 11.0846 0.295843 10.5832
H 11.0 2.05132 10.852
H 13.4287 1.0113 10.3757
H 13.1481 2.27637 11.6701
H 14.8799 68.6856 16.596
H 13.6831 67.3341 18.4515
H 11.1816 67.4415 18.7199
H 13.3439 66.0607 16.528
H 11.7234 67.1579 16.2088
H 13.3456 67.4622 15.4775
H 14.4422 69.5259 19.0578
H 15.1128 0.706146 17.9333
H 13.3238 0.687353 18.2073
H 12.7279 69.3662 19.8262
H 11.4726 0.367436 18.9714
H 10.8437 69.2141 20.0317
H 7.36365 0.789503 11.5867
H 8.55815 1.9761 11.0124
H 8.79849 0.176259 10.7334
C 64.9744 53.6446 8.49446
N 65.0646 52.398 8.244
C 65.7137 51.6288 9.06735
N 66.3424 52.0354 10.1311
C 66.3917 53.3131 10.3804
C 65.6284 54.2224 9.64113
C 64.1519 54.4771 7.60089
O 62.9438 54.5345 7.65561
C 67.2989 53.8834 11.4977
C 65.3458 55.5364 10.3765
N 65.9487 58.7063 11.6095
C 62.18 61.5346 12.3206
C 65.5522 59.7947 12.2032
C 63.5018 61.3905 12.6513
C 65.4442 58.2124 10.5053
C 61.5157 60.8006 11.2341
C 63.2431 58.3285 9.13253
C 62.0481 59.0201 9.34343
C 64.3428 60.4632 11.8897
C 64.3358 58.874 9.93325
C 62.3574 60.0708 10.2848
C 63.8141 60.1021 10.5677
C 66.1916 60.4739 13.3949
C 65.6254 61.8908 13.8723
C 64.1161 61.7955 14.015
C 65.7718 56.9428 9.76426
C 65.0891 56.8166 8.33222
C 63.5038 56.956 8.54111
H 65.7278 50.5728 8.91413
H 64.6053 54.9818 6.72901
H 67.1492 54.9625 11.5408
H 67.0896 53.4883 12.4934
H 68.3667 53.6468 11.3036
H 65.6195 55.4313 11.444
H 64.2415 55.4774 10.3641
H 61.5754 61.9998 13.1214
H 60.4331 60.7507 11.2177
H 61.1003 58.7166 9.02234
H 66.0921 59.7814 14.2185
H 67.2914 60.5389 13.2555
H 65.9311 62.687 13.2161
H 66.0468 62.1065 14.8605
H 63.7897 62.7751 14.3668
H 63.8811 61.133 14.8254
H 66.866 56.9078 9.60218
H 65.4496 57.5934 7.59155
H 65.5024 55.9183 7.89813
H 63.0423 56.2037 9.19314
H 63.0091 56.7885 7.58747
C 22.0225 43.4041 65.2176
C 21.5424 44.2343 66.2274
C 21.0019 45.4774 65.8746
C 21.0213 45.8076 64.4778
C 21.4586 44.9508 63.5251
C 21.9433 43.6802 63.892
C 21.72 48.1689 64.7665
C 21.3481 49.1755 65.7209
C 29.0672 52.1679 65.2555
C 23.0431 47.8776 64.301
C 28.1747 53.1086 65.5995
C 22.3079 50.0978 66.1441
C 28.5127 50.7719 64.95
C 25.6426 53.0074 66.225
C 24.6282 52.0514 66.4567
C 25.5418 48.8628 64.4774
C 26.8354 52.4443 65.6552
C 24.0215 48.7252 64.7839
C 27.0102 51.0677 65.148
C 23.6274 49.8394 65.6172
C 24.7452 50.7892 65.6857
C 25.9038 50.2815 65.0174
C 22.156 51.467 66.7488
C 23.508 52.0593 67.4887
O 20.0673 49.2213 66.1531
O 25.5386 54.2794 66.6175
C 29.01 49.8095 66.017
C 20.6746 47.3059 64.1147
C 30.6031 52.3913 65.175
H 22.411 42.4146 65.552
H 21.5806 43.9305 67.2839
H 20.6432 46.2289 66.6273
H 21.3836 45.2458 62.457
H 22.3391 42.9514 63.1161
H 23.2862 47.0943 63.5622
H 28.4819 54.1527 65.7865
H 28.7211 50.3067 63.9392
H 26.1586 48.0826 64.9488
H 25.8068 48.796 63.3692
H 21.8544 52.1519 65.9636
H 21.339 51.4416 67.4985
H 23.3727 53.0993 67.8226
H 23.7424 51.3358 68.3001
H 19.9834 49.8936 66.8494
H 26.3974 54.6996 66.3094
H 28.3991 48.8469 65.8841
H 28.9155 50.2137 67.0616
H 30.1181 49.5615 65.879
H 20.7 47.5002 63.0038
H 19.6247 47.5639 64.4742
H 31.0344 52.1582 66.1718
H 30.762 53.4836 64.9118
H 31.0646 51.661 64.4302
C 33.84 14.8633 56.7621
C 32.9338 13.985 56.1028
C 34.2399 11.3317 48.25
C 34.2571 16.0911 56.1446
C 35.306 12.1626 47.9962
C 33.2941 11.5085 49.299
C 32.6057 14.2208 54.7692
C 36.814 14.0827 48.9903
C 36.8317 15.1551 49.8894
N 34.6792 17.1561 53.8123
C 35.5397 16.585 51.5998
C 32.8401 13.0189 51.5437
C 35.7119 13.1724 48.9307
C 34.0288 16.3274 54.7687
C 33.5427 12.4611 50.2405
C 35.6877 15.4495 50.6887
C 34.5893 16.5131 52.5721
C 33.2117 15.3298 54.1487
C 33.5692 14.3561 51.8261
C 34.7254 13.2212 50.0164
C 33.5727 15.4645 52.7035
C 34.6404 14.4099 50.8912
C 36.1301 12.1951 46.6912
C 37.1858 13.232 46.6683
C 37.8945 13.6762 48.0025
C 37.8922 16.2454 49.895
C 37.2465 17.624 50.1416
C 36.626 17.6832 51.5175
O 32.1099 10.8631 49.163
C 33.3409 12.0102 52.657
C 32.4093 10.7686 52.6884
C 35.1285 12.6315 45.6495
C 35.2402 17.003 56.9312
H 34.188 14.6616 57.7901
H 32.5217 13.0663 56.5892
H 33.8776 10.6062 47.474
H 31.9601 13.5554 54.229
H 35.4743 17.8206 54.0845
H 31.7155 13.0639 51.5747
H 36.5235 11.1764 46.5142
H 36.8577 14.1639 46.1584
H 38.0076 12.8324 46.0156
H 38.6956 14.4321 47.8311
H 38.3764 12.8052 48.5305
H 38.4019 16.2685 48.8732
H 38.7756 16.0714 50.6059
H 36.5395 17.7796 49.3288
H 37.9762 18.4211 50.0741
H 37.3834 17.4794 52.3319
H 36.1881 18.6504 51.7372
H 31.4839 11.0698 49.8686
H 34.3767 11.6935 52.4457
H 33.4481 12.4828 53.684
H 31.3592 11.1049 52.7055
H 32.5382 10.0757 51.801
H 32.5794 10.1825 53.6073
H 35.6037 12.6772 44.6771
H 34.1463 12.1101 45.7374
H 34.7822 13.6233 45.8671
H 36.2774 16.8559 56.4934
H 35.1799 16.6962 58.0011
H 35.0253 18.0773 56.663
C 61.5172 11.6587 0.757308
C 61.2093 13.052 0.395787
C 57.3028 10.8544 69.2957
C 60.5076 10.6915 1.07419
C 59.7997 13.3294 0.219034
C 58.1126 10.1416 0.153495
N 57.646 12.1857 69.2886
C 59.173 11.0393 0.627501
C 58.8441 12.3366 0.0659424
C 62.8593 11.1383 0.492406
C 63.7819 12.0027 69.8785
C 63.4945 13.402 69.8676
C 62.2133 13.9853 0.0435582
C 60.9501 9.37678 1.68766
C 62.0673 8.71893 0.863434
C 63.2155 9.65552 0.793223
C 59.2941 14.7652 0.0860639
C 60.3717 15.7401 0.389395
C 61.7528 15.3519 69.6071
C 56.2101 10.1459 68.5744
C 56.1584 8.53866 68.8722
C 56.6033 8.35287 0.328852
C 58.0593 8.62625 0.468959
C 64.7152 14.1717 69.4429
O 64.9845 15.2833 69.8288
O 64.8814 11.5368 69.2518
C 62.7988 16.4876 69.8468
C 62.1897 17.9048 0.0647462
C 56.3977 6.9484 0.803759
C 58.1966 14.9407 1.13309
C 55.8202 9.29133 1.19571
C 61.4529 15.2741 68.0707
H 57.2459 12.987 68.7229
H 61.3661 9.49128 2.73176
H 60.0997 8.68235 1.78363
H 62.2586 7.7476 1.37472
H 61.603 8.45334 69.8972
H 64.0017 9.31898 0.0999715
H 63.6977 9.66796 1.79472
H 58.9098 14.949 69.0281
H 60.4577 15.9587 1.48647
H 59.9821 16.6674 -0.128495
H 56.2849 10.2737 67.4614
H 55.2477 10.5173 68.716
H 56.8357 8.01049 68.1774
H 55.1479 8.17984 68.6467
H 58.6457 7.98591 69.7525
H 58.39 8.41966 1.52659
H 65.5035 13.6705 68.8459
H 64.7985 10.5651 69.198
H 63.4153 16.496 68.9298
H 63.4264 16.1817 0.735161
H 61.763 18.3261 69.1245
H 61.4628 17.8644 0.893534
H 62.9294 18.6347 0.503402
H 56.6955 6.81863 1.83904
H 57.106 6.28266 0.350318
H 55.4022 6.59195 0.546361
H 58.1214 16.0146 1.38366
H 57.2026 14.6017 0.694155
H 58.3788 14.3304 2.10017
H 56.3961 9.64239 2.07892
H 54.7967 8.87368 1.38714
H 55.6963 10.2885 0.735016
H 61.3185 16.2822 67.6003
H 62.3565 14.9145 67.5619
H 60.5835 14.5828 67.9155
C 16.4646 41.8283 40.065
C 17.3382 41.8356 41.3535
C 13.102 44.5233 42.1436
C 13.7102 44.3795 43.4024
C 15.0388 42.018 40.1029
C 16.6723 42.2899 42.5219
C 13.574 43.8292 41.0526
C 14.8436 43.586 43.5732
C 14.641 42.8646 41.1901
C 15.395 42.8863 42.4481
C 16.9962 41.3507 38.8428
C 18.3498 41.0393 38.7442
C 19.1361 41.0044 39.8976
C 18.714 41.4778 41.1481
N 14.1522 41.4097 39.2819
C 14.6737 40.7379 38.0365
C 16.0707 41.2753 37.608
C 16.9528 42.003 43.9957
O 17.8789 42.496 44.5729
C 15.9944 41.1489 44.854
O 19.5769 41.5417 42.1802
O 13.2861 45.0268 44.5069
C 12.8262 41.123 39.8564
C 14.7149 39.1953 38.1263
C 18.986 40.4952 37.4373
C 8.30808 39.7364 39.925
C 7.83798 40.553 40.9896
C 8.68934 41.4946 41.5566
C 9.93933 41.6837 40.9482
C 10.3536 40.9533 39.7998
C 9.57313 39.8729 39.3771
C 11.6689 41.2722 38.9886
C 10.7178 42.9268 41.4524
H 12.3116 45.2377 42.0441
H 13.0856 44.0186 40.0756
H 15.27 43.5661 44.5781
H 20.1828 40.6406 39.901
H 13.8838 41.0343 37.2981
H 15.935 42.3136 37.2466
H 16.5766 40.6324 36.8052
H 16.5433 40.9241 45.8415
H 15.8446 40.1958 44.3196
H 15.0204 41.6908 45.0742
H 19.1817 42.0201 42.8775
H 12.5622 45.595 44.2368
H 12.8656 40.0645 40.1722
H 12.7052 41.7104 40.7615
H 13.7006 38.79 38.4275
H 14.9069 38.7615 37.0935
H 15.5208 38.8805 38.8546
H 20.0748 40.3138 37.5413
H 18.8628 41.2412 36.6082
H 18.5317 39.4936 37.1703
H 7.62075 38.9287 39.4805
H 6.8984 40.3882 41.4758
H 8.39062 42.1314 42.4472
H 9.86446 39.1734 38.5984
H 11.6113 42.3339 38.6054
H 11.7216 40.6835 38.064
H 11.4861 42.5684 42.0728
H 10.0072 43.5703 42.0194
H 11.0833 43.4531 40.5521
C 31.5628 41.6806 5.48258
C 30.746 45.3602 69.4111
C 33.0515 41.7596 5.39182
C 32.0823 45.984 69.6925
C 30.7887 42.0498 4.32813
C 30.3207 44.1952 0.0717168
C 35.1859 42.5575 4.3358
C 34.3854 46.0576 0.880651
C 35.7366 43.3275 3.30599
C 35.3236 45.1098 1.57827
C 30.6541 42.7158 1.99566
C 33.6792 42.3032 4.2528
C 33.0031 45.3459 0.508556
C 34.8761 44.0651 2.36627
C 31.4177 42.4567 3.15396
C 31.1499 43.7499 1.11748
C 32.9116 42.7627 3.1207
C 32.5296 44.2979 1.29767
C 33.4648 43.7305 2.26226
C 31.0058 41.4184 6.75029
C 31.7631 41.165 7.92211
C 33.1378 41.1606 7.84359
C 33.7984 41.3693 6.59376
C 35.1946 41.3287 6.45008
C 35.8873 41.7892 5.3405
C 29.8119 46.0066 68.5291
C 30.1764 47.2042 68.0103
C 31.4262 47.8751 68.2635
C 32.3192 47.2974 69.1234
C 37.2219 43.4263 3.29012
O 37.8533 43.8743 2.36665
O 28.6102 45.4433 68.2486
C 29.2481 42.0917 1.7919
H 29.6871 42.0401 4.43428
H 29.2885 43.8486 69.853
H 34.8867 46.548 70.0396
H 34.2092 46.9197 1.58025
H 36.362 45.4443 1.63313
H 29.9013 41.426 6.87135
H 31.2389 41.036 8.88082
H 33.7157 40.9719 8.71738
H 35.6832 40.739 7.22289
H 36.9505 41.6288 5.29241
H 29.4997 47.733 67.3209
H 31.8222 48.8178 67.7656
H 33.251 47.813 69.3953
H 37.7275 43.0746 4.22243
H 27.9652 46.0774 67.9384
H 29.0058 41.8421 0.729973
H 28.445 42.7873 2.09392
H 29.1656 41.1308 2.34606
C 69.7936 69.9514 58.5257
C 69.8964 69.4167 57.142
C 67.2526 3.41684 52.32
C 0.0899165 1.32754 58.8037
S 67.552 4.97015 53.1649
C 68.0712 2.37238 52.73
C 0.395257 0.149076 56.033
C 69.6859 4.78611 55.0944
C 0.303637 3.63803 57.4099
C 0.179308 2.05233 54.0419
C 68.9537 4.24126 54.0193
C 69.1407 2.91993 53.5737
C 0.367131 2.09769 57.6262
C 0.38123 3.81563 55.8915
C 0.709158 1.54412 56.3353
C 0.714056 2.58776 55.2729
C 0.421783 69.6687 54.6642
C 0.284959 0.629697 53.6709
C 69.2075 69.1338 59.5156
C 68.5131 67.9774 59.096
C 68.6987 67.3888 57.828
C 69.2376 68.1901 56.7883
C 69.0184 67.8112 55.2844
C 0.268822 68.1337 54.4959
C 0.0831007 2.03823 60.1379
O 1.10593 2.3573 60.6784
O 69.4346 6.0749 55.5319
C 1.54989 4.0596 58.1854
C 67.8017 0.895263 52.3973
C 0.071715 67.7688 53.0548
C 69.1197 4.33687 58.0018
C 69.2937 69.72 60.9457
H 66.3528 3.29266 51.7415
H 0.208241 0.325131 52.6321
H 67.8966 67.4188 59.7949
H 68.2043 66.4681 57.5602
H 68.69 66.7436 55.1587
H 68.1144 68.3615 54.8613
H 1.14053 67.6202 54.9503
H 69.1377 2.38054 60.5056
H 68.9795 6.56792 54.8865
H 2.33608 3.2411 58.0927
H 1.9226 5.02305 57.7748
H 1.07346 4.30065 59.1848
H 68.542 0.479754 51.6699
H 66.7398 0.799434 52.0056
H 67.8696 0.208391 53.317
H 0.920948 67.9502 52.3511
H 69.8519 66.656 52.9622
H 69.1731 68.3113 52.7003
H 68.9301 5.40589 57.7347
H 68.1322 3.8279 57.6885
H 69.207 4.38274 59.1063
H 69.0748 68.9861 61.7095
H 68.6524 0.635769 61.0949
H 0.324234 0.163749 61.0517
C 40.0866 35.9094 44.382
C 40.0994 36.9338 45.3621
C 39.5986 36.6659 46.6559
C 39.0557 35.4023 46.9101
C 39.0433 34.3795 45.9676
C 39.5567 34.6653 44.694
O 38.5089 35.1393 48.0977
C 40.6721 36.1597 42.991
C 42.5336 35.8564 45.6127
C 39.3005 33.1555 50.9038
C 42.5589 36.8515 46.6776
C 39.4461 34.5724 50.9886
C 42.2217 34.4695 45.792
C 40.0249 32.4362 49.919
C 41.9767 36.4893 47.9655
C 40.301 35.3356 50.1164
C 41.5915 32.6836 47.6945
C 41.9739 34.0694 47.0958
C 40.9355 33.0434 49.0331
C 41.8514 35.067 48.1392
C 41.0772 34.4689 49.2165
C 41.3091 37.2845 48.9793
C 40.451 36.7508 49.8976
C 42.7211 36.368 44.2572
C 43.0298 37.7132 44.0545
C 43.0198 38.6405 45.0786
C 42.7657 38.2258 46.4426
C 39.8784 30.9312 49.7861
O 38.9058 30.3111 50.105
C 40.5653 31.9597 46.7326
C 38.5298 35.2896 51.9993
C 42.1943 35.6309 43.0472
H 40.5052 37.9135 45.0638
H 39.6352 37.4981 47.4673
H 38.5778 33.3911 46.2286
H 39.6035 33.9601 43.8633
H 38.4902 35.9244 48.7135
H 40.6288 37.216 42.72
H 40.1303 35.5429 42.2732
H 38.6307 32.6841 51.6191
H 42.1495 33.8093 44.9193
H 42.4132 31.9453 47.9063
H 41.4509 38.378 48.9582
H 39.9345 37.5127 50.5221
H 43.1463 37.99 43.0287
H 43.3778 39.6448 44.8635
H 42.8356 38.9644 47.2761
H 40.7282 30.2869 49.4358
H 40.8526 30.8807 46.4883
H 39.5276 31.9882 47.1188
H 40.5115 32.4482 45.7192
H 38.7038 36.3677 51.8186
H 38.7708 34.9255 52.9948
H 37.4983 35.0065 51.8157
H 42.3182 34.5208 43.254
H 42.7958 35.9404 42.1704
C 19.9186 41.7434 1.9966
C 19.1858 41.6717 3.35158
N 18.6466 46.3841 1.62365
C 18.329 46.4263 2.94362
C 19.9373 42.9466 1.25963
C 18.8074 42.8451 3.98544
C 19.1928 45.3109 1.17186
C 18.5472 45.3201 3.84297
C 19.4512 44.0991 1.8899
C 19.0402 44.07 3.33644
C 20.3262 40.5275 1.38455
C 20.0276 39.3037 1.98087
C 19.1514 39.2548 3.09748
C 18.7468 40.3979 3.75511
C 20.6284 43.0079 69.8416
C 20.4779 41.6567 69.2024
C 21.1301 40.6448 0.0438965
C 17.6021 47.5769 3.44008
O 17.3893 47.7258 4.61438
C 17.112 48.5344 2.49244
C 19.0035 41.3389 68.9131
C 18.4696 37.9344 3.51179
C 18.0234 42.6743 5.28903
C 19.6685 49.465 3.49152
C 19.4986 49.2506 2.12087
C 20.6095 49.2952 1.26104
C 21.8951 49.4494 1.8256
C 22.0434 49.5987 3.23755
C 20.9388 49.6087 4.02746
O 18.3541 48.9352 1.58779
C 20.3421 49.041 69.7591
C 23.1517 49.4063 0.920913
H 19.4753 45.3239 0.113881
H 18.2063 45.498 4.88256
H 20.3153 38.4414 1.3836
H 18.0407 40.3395 4.55637
H 21.6997 43.2582 69.9677
H 20.2221 43.8229 69.1991
H 21.0161 41.6566 68.2295
H 21.2517 39.618 69.6067
H 22.1869 40.9373 0.243276
H 16.3469 48.0879 1.80951
H 16.7957 49.4505 2.97934
H 18.9942 40.3496 68.3936
H 18.4755 41.2682 69.8851
H 18.6276 42.1605 68.2852
H 18.9632 37.5028 4.45452
H 18.4346 37.2127 2.68115
H 17.356 38.1185 3.74808
H 18.3054 41.6896 5.80809
H 18.1927 43.564 5.94036
H 16.9296 42.615 5.00097
H 18.7794 49.555 4.11685
H 23.0397 49.8011 3.6781
H 21.0743 49.7258 5.14758
H 19.2749 49.159 69.5393
H 21.0045 49.6879 69.189
H 20.6875 48.0361 69.5666
H 22.8807 49.0638 -0.091392
H 23.6912 50.377 0.95401
H 23.8293 48.636 1.33802
C 21.1804 58.0036 2.73683
C 20.7655 57.9633 1.37472
C 18.2968 54.0861 3.57533
C 17.9881 54.1714 2.07782
C 20.6838 57.083 3.66001
N 19.8471 57.0512 1.04339
C 19.3417 54.9194 4.08019
C 18.4043 55.3087 1.30629
C 19.8295 56.0592 3.24118
C 19.3613 56.1536 1.87633
C 22.0696 59.1193 3.23928
C 22.5085 60.0488 2.17194
C 22.1332 59.8992 0.771068
C 21.3154 58.8436 0.418061
C 17.6936 53.0168 4.30222
C 17.249 51.8895 3.58396
C 17.3185 51.8706 2.15974
C 17.5574 52.9897 1.40558
C 22.6274 59.3226 4.5018
C 23.4645 60.3708 4.7422
C 23.8121 61.2682 3.72748
C 23.3705 61.1229 2.42944
C 19.9109 54.2431 5.26114
O 20.4568 54.7075 6.24349
O 22.7058 60.6467 69.7992
O 21.0628 57.1202 4.96385
O 17.5501 53.0784 5.66118
O 22.4896 58.3889 5.49153
C 18.3304 55.5755 69.8272
C 18.5811 59.3008 69.7097
C 17.8513 60.4276 69.346
C 16.7776 60.1949 68.4558
C 16.5214 58.9603 67.87
C 17.3314 57.8618 68.2359
C 18.3549 58.0088 69.1786
O 19.048 56.8801 69.5116
H 21.123 58.7656 69.3178
H 16.9669 50.9881 4.17443
H 16.9362 50.9843 1.66585
H 17.5043 52.9958 0.299296
H 23.9121 60.5554 5.75834
H 24.5055 62.1013 3.93497
H 23.6807 61.919 1.68551
H 19.7817 53.1417 5.31025
H 22.3789 60.3426 68.9219
H 20.4472 56.5254 5.44846
H 17.192 52.301 6.03812
H 23.0477 58.6401 6.29563
H 18.8278 54.8353 69.2134
H 17.2386 55.6528 69.5898
H 19.309 59.4889 0.541343
H 18.0413 61.3967 69.8124
H 16.178 61.0183 68.1014
H 15.7058 58.7687 67.139
H 17.1089 56.9212 67.8024
N 63.2829 23.6314 32.5172
C 63.8544 23.8951 33.6445
C 63.0532 24.2133 34.7726
C 61.6842 24.2788 34.5954
C 61.1448 23.9545 33.3761
C 62.0336 23.7162 32.2952
C 61.3564 23.5701 30.9519
O 60.1371 23.5172 30.961
C 62.0863 23.3435 29.6073
O 65.1021 23.8987 33.9224
C 61.2677 23.7764 28.3763
C 1.21343 23.3215 36.2307
C 1.83237 22.4209 35.2914
C 67.5236 23.7054 33.0588
C 68.3778 23.2331 31.9828
C 69.9709 23.8884 35.878
C 1.39451 22.3091 33.9416
C 68.0698 24.0726 34.3192
C 69.683 22.9289 32.2233
C 69.4577 23.7817 34.541
C 0.273002 23.0545 33.5466
C 69.1259 24.3381 37.0774
C 68.1701 25.4651 36.5316
C 67.2676 24.8617 35.405
C 67.4227 25.8508 37.8578
C 2.80444 21.4536 35.9794
C 0.542978 22.3383 31.0636
C 66.0823 23.5203 32.7241
C 65.7831 27.7935 34.9769
C 65.1012 26.5823 35.3855
C 65.2402 26.0887 36.6973
C 66.2648 26.7682 37.4579
C 66.5277 28.1771 37.3236
C 66.2298 28.6387 36.06
C 66.3876 30.1179 35.7861
O 66.4049 30.5967 34.6764
H 63.5262 24.5202 35.7351
H 61.0238 24.4849 35.451