37918
Lattice='70.0 0.0 0.0 0.0 70.0 0.0 0.0 0.0 70.0' Properties=species:S:1:pos:R:3 Timestep:=T pbc=F F F 1229=T Atoms.=T
C 28.8683 66.1224 0.55579
C 28.2946 64.9405 0.0653372
C 28.5496 64.5154 68.7708
C 29.3596 65.3135 67.9406
C 30.0175 66.4471 68.4354
C 29.7534 66.8421 69.7469
C 28.6107 66.5284 2.00348
O 28.9655 67.5925 2.4259
C 30.5871 68.0188 0.299594
H 27.6502 64.3352 0.677739
H 28.0836 63.5613 68.3582
H 29.4341 64.8997 66.9234
H 30.7075 67.0074 67.8007
H 27.8789 65.9186 2.69083
H 31.2367 67.6147 1.12068
H 29.9179 68.732 0.834872
H 31.2001 68.5116 69.5308
C 53.741 58.8741 4.45909
C 52.3529 59.1228 4.31463
C 52.0341 60.4597 4.56519
C 53.0272 61.5232 4.47081
C 54.3597 61.1854 4.62916
C 54.7186 59.8268 4.73332
C 52.6779 62.9546 4.08612
O 51.544 63.3134 3.88753
O 51.5213 58.2044 3.82687
O 55.331 62.1279 4.66535
O 54.0894 57.5589 4.49501
C 50.5725 60.8139 4.91554
H 55.741 59.584 4.98458
H 53.6778 63.3575 3.75187
H 51.9006 57.2988 3.57634
H 56.1848 61.6862 4.83329
H 55.0504 57.3434 4.53894
H 49.9399 59.851 4.81253
H 50.5804 61.1297 6.00014
H 50.234 61.7188 4.31308
C 40.3445 0.504152 19.3842
C 39.1644 0.492292 20.1829
C 39.3196 0.388255 21.5936
C 40.5961 0.367478 22.1736
C 41.7558 0.121633 21.3629
C 41.5711 0.201671 19.9637
C 40.2605 0.85591 17.8795
O 39.7503 1.89671 17.5758
C 40.8076 -0.0491641 16.8
C 37.8391 0.727037 19.4846
O 36.8354 0.276118 19.9691
C 40.2354 68.5489 16.9878
C 40.7294 0.420151 23.7223
C 42.7367 69.8875 19.0075
C 38.1157 0.240603 22.5569
C 43.1119 0.0294103 22.0786
H 41.9469 -0.09772 16.8049
H 40.544 0.338161 15.7425
H 37.726 1.29273 18.5615
H 41.031 67.8906 17.3809
H 39.8345 68.1228 16.0473
H 39.4554 68.5609 17.773
H 41.6891 0.965463 24.0054
H 39.8415 0.984401 24.1599
H 40.7146 69.3309 24.1062
H 42.5541 68.9451 18.4293
H 43.6935 69.6392 19.5172
H 42.9087 0.747265 18.2732
H 37.9891 1.21811 23.1241
H 37.1655 70.0038 21.9971
H 38.3235 69.3689 23.2518
H 43.0881 69.5179 23.0938
H 43.8054 69.405 21.431
H 43.5527 1.06808 22.2724
C 63.8366 5.68125 0.207627
C 64.5888 5.23642 69.0343
C 62.6554 1.19025 0.397462
C 63.1973 4.75689 1.16236
C 64.4363 3.87804 68.7829
C 62.436 2.18069 1.33365
N 63.205 1.65751 69.1968
C 63.1332 3.38917 0.779847
C 63.5823 2.99563 69.4438
C 64.0539 7.05423 0.571278
C 64.8412 7.92468 69.6839
C 65.4988 7.23895 68.5801
N 65.4047 5.9773 68.3531
C 63.5824 7.55577 1.88696
C 63.9046 8.87895 2.23248
C 64.5993 9.68504 1.34873
C 65.0391 9.26039 0.116394
C 62.926 6.60986 2.72941
C 62.7666 5.30057 2.41725
C 61.7095 1.85131 2.65245
C 65.801 10.1957 69.122
H 62.287 0.147396 0.539681
H 64.9569 3.45213 67.9185
H 63.3248 1.05615 68.3993
H 66.2196 7.69021 67.7625
H 63.7004 9.36386 3.20236
H 64.9203 10.6845 1.60944
H 62.5157 7.02122 3.6774
H 62.2975 4.54763 3.1024
H 60.9225 1.08671 2.43394
H 61.2865 2.7209 3.21185
H 62.4548 1.31575 3.21207
H 65.3783 10.076 68.0793
H 65.6998 11.2494 69.4517
H 66.869 9.88148 69.0236
N -0.0138997 66.8212 0.107587
C 69.7883 67.0847 1.37214
N 0.132266 68.2447 1.90509
C 0.74583 69.1637 1.23943
C 0.943338 68.9897 69.8059
C 0.557142 67.7354 69.3912
C 1.06493 0.418565 1.91997
O 1.58095 1.40139 1.43124
O 1.42412 69.8114 68.9001
C 7.34656 0.661613 68.3034
C 6.85907 1.55243 67.3223
C 5.45838 1.834 67.2841
C 4.53012 1.20449 68.1715
C 5.11125 0.460699 69.2262
C 6.46507 0.18526 69.2706
C 3.07819 1.52685 67.99
O 2.60829 2.0463 67.014
C 2.21328 1.15251 69.0873
O 8.63106 0.22959 68.1868
O 6.97976 69.6489 0.408696
H 69.3101 66.3354 1.97665
H 0.756452 67.3757 68.3879
H 0.617322 0.583154 2.91188
H 7.51209 1.94284 66.4226
H 5.00805 2.5397 66.5267
H 4.5925 0.260291 70.176
H 2.76904 0.886504 -0.052014
H 1.42298 1.89955 69.298
H 9.08549 0.500103 67.3696
H 6.33744 69.6399 1.12005
C 52.0791 10.1441 66.2638
C 52.2518 8.65871 66.4962
C 49.2615 9.86787 69.9119
C 51.512 10.9803 67.2402
C 51.4368 8.1092 67.5387
C 49.9579 10.8799 69.4181
N 49.6222 8.63141 69.3422
C 50.826 10.3182 68.2793
C 50.6332 8.90703 68.392
C 52.8378 10.6897 65.1367
C 53.3228 9.7063 64.2091
C 53.3585 8.30392 64.6201
N 52.8824 7.86811 65.708
C 52.8802 12.0394 64.7617
C 53.4925 12.3786 63.5644
C 53.8698 11.3978 62.6105
C 53.7571 10.0122 62.8577
C 51.3218 6.61733 67.6122
O 50.3728 6.14503 68.2221
O 53.7863 13.6697 63.2499
C 50.1247 12.3212 -0.0729967
H 48.4962 9.95661 0.757697
H 51.5001 12.042 67.1499
H 49.1833 7.71145 69.5023
H 53.7838 7.4997 63.9213
H 52.4091 12.7894 65.3849
H 54.3617 11.7389 61.7149
H 54.1198 9.25764 62.16
H 52.0656 5.89907 67.2012
H 53.5522 14.2117 64.0397
H 50.6039 12.898 69.114
H 50.6671 12.323 0.889321
H 49.1012 12.5933 0.246326
C 3.95414 38.3399 40.8629
C 3.86156 39.1231 39.5579
C 4.39515 42.626 43.1506
C 5.11809 43.1065 41.9296
C 4.26667 39.0127 42.0576
C 3.98737 40.4919 39.5113
C 4.01602 41.2559 43.2058
C 4.89361 42.4481 40.6986
C 4.26069 40.4484 42.0735
C 4.34769 41.1646 40.7222
C 3.64456 36.941 40.8429
C 3.32682 36.3094 39.6466
C 3.33049 37.0588 38.4255
C 3.61892 38.4186 38.3401
C 4.27017 43.5297 44.2186
C 5.14648 44.5904 44.2793
C 6.19972 44.8476 43.2915
C 5.9866 44.2179 42.052
C 4.4591 38.1209 43.3065
C 4.83037 36.6703 43.0339
C 3.7505 36.1037 42.1553
O 3.63803 38.9255 37.08
C 4.98958 45.4416 45.5595
C 7.41469 45.7232 43.5705
H 3.84353 41.0056 38.5953
H 3.64181 40.8327 44.1322
H 5.18282 42.9523 39.7505
H 3.0962 35.2498 39.6818
H 3.15041 36.5582 37.4605
H 3.52759 43.3441 45.0689
H 6.62872 44.4471 41.1976
H 3.51661 38.0907 43.9042
H 5.22378 38.582 43.9861
H 5.84684 36.5636 42.5849
H 4.88319 36.0937 44.0098
H 3.94535 35.0349 41.864
H 2.78185 36.1068 42.7507
H 4.03185 39.7916 36.9897
H 3.90311 45.6256 45.7767
H 5.29637 44.8635 46.4406
H 5.60194 46.3721 45.4499
H 8.13136 45.1778 44.2034
H 7.14485 46.6475 44.1596
H 8.01801 46.0595 42.7049
C 9.51726 60.1494 29.9787
C 9.58827 61.2503 30.9902
C 5.66102 58.1473 32.0652
C 6.31869 58.548 33.3655
C 8.45845 59.1994 29.8974
C 8.66344 61.1402 32.0679
C 6.32574 58.3849 30.8175
C 7.2852 59.5338 33.3934
C 7.50143 59.2012 30.9283
C 7.78116 60.0031 32.1484
C 10.6598 60.0377 29.1237
C 11.6131 61.0339 29.0056
C 11.4848 62.2158 29.8026
C 10.5249 62.3234 30.7834
C 4.45124 57.3911 32.1853
N 4.09757 56.8231 33.2497
C 4.76675 56.9234 34.3677
C 5.81518 57.7413 34.4638
C 8.37051 58.0784 28.8387
C 9.38879 58.4246 27.7729
C 10.747 58.6632 28.4006
C 8.80679 62.1316 33.1514
O 9.70555 62.9228 33.2921
C 7.64424 62.2292 34.1533
O 3.74941 57.2949 31.0147
O 4.50538 56.2292 35.5114
H 6.00428 57.8454 29.9735
H 7.72121 59.8381 34.343
H 12.5013 60.9166 28.4262
H 12.2402 63.0208 29.6627
H 10.5259 63.1407 31.4673
H 6.36455 57.6528 35.3676
H 8.48848 57.1183 29.3062
H 7.34056 58.005 28.4102
H 9.46575 57.6081 27.0293
H 9.07293 59.245 27.1597
H 11.5905 58.6283 27.6964
H 10.9719 57.89 29.1798
H 7.54979 63.2796 34.4986
H 7.93507 61.6015 35.0748
H 6.65153 61.8976 33.7141
H 3.05218 56.6563 31.3761
H 5.33734 56.242 35.9879
C 40.7953 67.6559 5.45361
C 40.1694 67.9597 4.12955
C 44.633 65.7619 3.29655
C 44.2301 66.3986 2.09782
C 41.8466 66.7106 5.52057
C 40.8375 67.6688 2.9221
C 43.7688 65.6927 4.33588
C 42.9547 66.9329 1.88879
C 42.5463 66.403 4.31446
C 42.0915 66.9789 3.02548
C 40.5057 68.5214 6.57076
C 39.3991 69.3813 6.434
C 38.6029 69.4379 5.26785
C 38.9935 68.7649 4.08477
C 41.3843 68.4785 7.7904
O 40.9823 68.5888 8.91458
C 37.4011 0.437115 5.32409
O 36.5251 0.261291 6.1341
C 37.3382 1.62796 4.46375
C 36.3786 2.66746 4.99443
C 39.0285 0.389262 7.55506
C 45.3044 66.4984 1.01953
C 38.2333 68.9268 2.76681
C 42.6507 66.2074 6.76346
H 45.6323 65.3263 3.39238
H 40.514 68.1518 1.97259
H 44.1012 65.2246 5.28248
H 42.6544 67.4002 0.928038
H 42.5116 68.3475 7.76017
H 37.1397 1.29845 3.40093
H 38.3634 2.03857 4.36056
H 35.401 2.24837 5.37204
H 36.8024 3.1361 5.92093
H 36.1622 3.48203 4.24213
H 39.8611 0.418127 8.29963
H 38.1068 0.0300701 8.00449
H 38.9781 1.38314 7.08741
H 45.181 67.5005 0.489717
H 45.3192 65.6091 0.271524
H 46.3392 66.4674 1.47036
H 38.7312 69.685 2.13264
H 38.2413 67.9756 2.18903
H 37.1977 69.2814 2.95968
H 43.6408 66.7025 6.85919
H 41.9532 66.3671 7.67353
H 42.7236 65.1158 6.6545
C 67.3543 12.042 0.868769
C 67.0649 13.1997 0.00140619
C 1.90294 11.656 69.428
C 1.8909 13.1212 69.1196
C 68.323 11.0549 0.392094
C 68.1842 13.687 69.2729
C 0.721169 10.9522 69.7535
C 0.648926 13.7905 69.0913
C 69.5078 11.6135 69.7453
C 69.4702 13.0252 69.2683
C 66.7183 11.8676 2.12819
C 65.4645 12.6341 2.41924
C 65.0529 13.618 1.42567
C 65.7594 13.7527 0.242202
C 3.15192 10.9994 69.5825
C 4.37649 11.6584 69.409
C 4.38064 13.0016 69.0489
C 3.17389 13.7 68.8624
C 66.9308 10.6592 2.92192
C 66.0881 10.3622 4.07183
C 64.9291 11.1046 4.28544
C 64.5627 12.1159 3.36446
C 67.457 9.60921 2.16058
C 68.1018 9.72304 0.917963
S 67.0391 8.00438 2.93897
C 3.40517 15.0942 68.2676
H 68.2494 14.6554 68.7807
H 0.741006 9.93457 70.1868
H 0.531613 14.861 68.9454
H 64.1277 14.0892 1.58672
H 65.2834 14.4317 69.565
H 3.17372 9.97831 69.8838
H 5.31544 11.131 69.4319
H 5.31141 13.5536 68.8684
H 66.3445 9.50414 4.66771
H 64.2916 10.8682 5.13874
H 63.5611 12.4813 3.33773
H 68.4985 8.83882 0.394054
H 66.2186 7.70026 1.89263
H 3.35962 14.9531 67.1203
H 2.59563 15.7718 68.5534
H 4.45003 15.4107 68.3647
C 15.3344 43.0947 20.0472
C 14.8927 44.4629 19.9448
C 17.7921 44.9412 23.6731
C 16.2528 42.7153 21.1459
C 15.0595 45.353 21.0629
C 17.8134 43.7933 23.0149
C 16.6761 45.8747 23.2065
C 16.7291 43.8039 21.9906
C 16.0777 45.0506 21.9937
C 14.5438 42.088 19.3662
C 13.3465 42.4452 18.6748
C 13.1318 43.8392 18.3086
C 13.851 44.8792 18.9666
C 14.8556 40.7136 19.6938
C 13.8965 39.736 19.2068
C 12.702 40.1421 18.5631
C 12.3333 41.4561 18.3039
C 15.902 40.3096 20.6148
C 16.5883 41.3595 21.2942
C 11.9479 44.1716 17.5347
C 11.6417 45.5824 17.4079
C 12.4544 46.6497 17.8208
C 13.5002 46.2416 18.662
N 11.1798 41.865 17.7323
C 10.9834 43.0734 17.3588
C 14.1565 46.5717 21.0759
C 14.1967 47.2271 19.5964
C 17.4948 41.0935 22.4988
O 18.6097 40.644 22.3982
C 12.7062 46.0218 21.3646
C 15.7319 47.2054 19.3449
H 18.4604 45.089 24.4576
H 18.4552 42.942 23.1603
H 17.0416 46.8209 22.7963
H 15.8801 45.9752 23.9509
H 14.1535 38.6949 19.3971
H 12.0061 39.3518 18.2902
H 16.2156 39.2598 20.6791
H 10.7435 45.9224 16.912
H 12.2218 47.7066 17.6301
H 9.99958 43.3376 16.9302
H 14.495 47.2977 21.859
H 13.7903 48.2487 19.5
H 17.1608 41.3783 23.5209
H 11.9322 46.8079 21.2305
H 12.4421 45.1834 20.6791
H 12.6963 45.5543 22.3939
H 16.1 48.2259 19.031
H 16.2689 46.9193 20.2816
H 16.0077 46.4389 18.6063
C 6.1575 8.37825 69.2808
C 7.00726 7.26625 68.9293
C 6.36826 6.09798 68.7064
N 5.05916 5.91885 68.858
C 4.30767 6.81366 69.3272
C 4.80349 8.10201 69.5924
C 7.24512 4.95324 68.3158
O 8.43446 5.11846 68.2095
C 2.88279 6.54746 69.6056
C 69.5134 2.82784 0.210131
C 69.731 3.53263 1.4647
C 69.6039 7.07996 68.6999
C 69.9297 3.38547 68.8614
C 0.147285 4.91442 1.44087
C 69.3725 5.82655 68.1674
C 0.451888 7.00814 -0.0324765
C 0.124166 4.81918 68.9274
C 0.437827 5.4707 0.184823
C 68.9597 1.57201 0.331653
C 68.5412 1.05536 1.61777
N 68.6669 1.77012 2.72254
C 69.2789 2.91824 2.69308
C 68.8419 0.799072 69.0079
C 68.1644 69.5854 69.1709
C 67.916 68.9899 0.431686
C 68.0957 69.7273 1.64067
C 69.3506 1.29509 67.781
C 69.8586 2.52806 67.7071
C 1.86834 7.68971 69.7023
H 6.55815 9.39322 69.1432
H 8.12705 7.36452 68.772
H 4.12676 8.86936 0.0466105
H 6.85116 3.92963 68.0442
H 2.53455 5.81045 68.8646
H 2.79091 5.89662 0.497916
H 68.9512 7.93657 68.425
H 0.174168 5.49099 2.42105
H 68.6053 5.60574 67.3569
H -0.0126294 7.50243 0.876926
H 69.3416 3.56121 3.60989
H 67.823 69.0709 68.3416
H 67.5411 67.9345 0.501925
H 68.0889 69.2559 2.63956
H 69.4073 0.658368 66.8581
H 0.256335 2.84794 66.7643
H 1.91105 8.40754 0.498606
H 1.82415 8.36983 68.8511
C 1.57026 12.2509 8.85618
C 2.988 12.3599 8.61135
C 2.90304 11.086 12.9303
C 0.956172 12.1122 10.1427
C 3.94836 12.3068 9.71444
C 1.59683 11.3737 12.5447
N 3.92985 11.2932 12.0779
C 1.9029 11.8975 11.171
C 3.39327 11.8348 10.9621
C 0.608522 12.063 7.77759
C 1.25514 11.5517 6.55935
C 2.65637 11.7615 6.26453
C 3.46562 12.3782 7.25311
C 69.2098 12.1136 7.86315
C 68.4357 11.5903 6.81138
C 69.016 10.5902 5.97662
C 0.429091 10.5631 5.87122
C 69.4582 11.9866 10.3518
C 68.5029 12.4016 9.18935
N 5.18608 12.6113 9.44806
C 5.74376 13.023 8.12429
C 4.79711 13.0536 6.88954
C 3.12277 11.1688 4.93351
C 2.66724 9.69884 5.066
C 1.195 9.70406 4.84916
O 67.0935 11.8104 6.72512
O 68.2608 9.68923 5.30795
C 6.26365 12.6236 10.4607
C 5.99393 13.354 11.7792
H 3.10485 10.7294 13.9738
H 0.597901 11.3245 13.0485
H 4.98189 11.1818 12.263
H 69.1662 12.3117 11.3835
H 69.3896 10.9056 10.4557
H 67.5253 11.8824 9.25593
H 68.2106 13.5213 9.17583
H 6.19843 14.0288 8.22185
H 6.65126 12.4239 7.91186
H 5.29764 12.6381 5.92484
H 4.5806 14.1676 6.61386
H 4.15327 11.2955 4.63117
H 2.51842 11.5276 4.12458
H 3.13528 9.06638 4.27104
H 2.85656 9.36473 6.10692
H 0.874332 10.2623 3.98152
H 0.718011 8.69016 4.90545
H 66.7956 11.3586 5.96502
H 68.8232 9.06652 4.87969
H 6.60682 11.6264 10.7726
H 7.08676 13.1808 9.93823
H 5.8701 12.6041 12.5652
H 5.0086 13.9296 11.7298
H 6.81511 14.0483 12.0271
C 66.4819 2.10623 13.2556
C 66.3215 3.50903 12.9644
C 69.0543 3.49246 16.9338
C 67.0007 1.69483 14.5649
C 66.7092 4.49376 13.9604
C 68.3448 2.3962 16.6392
C 68.6706 4.60502 15.9116
C 67.5605 2.65924 15.3963
C 67.5173 4.03773 15.0559
C 66.239 1.09675 12.2749
C 65.8188 1.53621 10.9401
C 65.2278 2.8465 10.8437
C 65.4773 3.80428 11.7924
C 66.5257 69.688 12.5825
C 66.6076 68.8283 11.4718
C 66.4649 69.3217 10.1612
C 65.9477 0.624947 9.89624
C 66.7704 69.3471 13.9633
C 67.1775 0.316247 14.9494
C 67.3658 -0.0465627 16.4475
C 68.3309 0.949398 17.2026
C 65.9369 5.79037 14.0477
C 64.6727 5.66213 13.1238
C 64.9723 5.22577 11.6049
C 63.806 4.50737 13.7194
C 66.7816 7.04249 14.0177
C 66.0644 6.132 10.9641
C 66.4106 67.9929 14.5654
H 69.717 3.61572 17.822
H 68.4814 5.57068 16.3866
H 69.45 4.80741 15.2472
H 64.6975 3.18643 9.92529
H 67.0214 67.7637 11.5236
H 66.707 68.7149 9.2398
H 65.6195 0.892876 8.90139
H 66.3658 0.154304 16.9196
H 67.5598 68.9023 16.7097
H 68.1965 0.898067 18.2914
H 69.3678 0.547534 17.1999
H 65.4667 5.83449 15.0218
H 64.0299 6.52551 13.1705
H 64.0623 5.27418 11.0236
H 63.3386 4.93595 14.6119
H 63.0643 4.12579 12.986
H 64.4473 3.63931 14.0259
H 67.2833 7.21749 13.0798
H 66.206 7.8673 14.4593
H 67.6009 7.04656 14.7073
H 65.7204 6.9015 10.2394
H 66.8029 6.43788 11.6693
H 66.6277 5.58404 10.1925
H 65.988 67.3234 13.8199
H 67.3637 67.6239 15.0517
H 65.7432 68.1137 15.4373
C 44.7652 68.6939 4.70914
N 43.8383 68.9212 5.58277
C 42.9912 69.8809 5.28879
N 43.0064 0.622935 4.21145
C 43.9221 0.405289 3.32006
C 44.8697 69.4056 3.52488
C 45.7846 67.589 5.05636
O 46.5992 67.1791 4.28387
C 44.0086 1.2148 2.00842
C 46.1126 69.2721 2.54278
N 47.0965 2.47169 2.06738
C 51.4501 3.74416 0.590724
C 47.7233 3.39763 1.38072
C 50.1062 4.14528 0.807657
C 47.6098 1.28332 2.11811
C 51.8448 2.42297 0.314435
C 49.6828 69.7067 1.6302
C 50.8864 0.0475037 1.03844
C 49.0023 3.20568 0.812528
C 48.7408 0.789191 1.37205
C 50.8282 1.38026 0.472945
C 49.4329 1.80858 0.590014
C 47.3361 4.85881 1.19968
C 48.3812 5.76221 1.93557
C 49.753 5.56806 1.20482
C 47.19 0.218223 3.12152
C 48.3767 69.5341 3.71054
C 49.2229 68.699 2.69332
H 42.2092 0.0663815 6.04695
H 45.6604 67.0466 6.02709
H 44.9371 1.81267 1.97701
H 44.0095 0.547371 1.12162
H 43.1225 1.92992 1.9795
H 45.8133 69.5928 1.56471
H 46.3872 68.1905 2.4368
H 52.2562 4.46641 0.705954
H 52.9072 2.12397 0.16299
H 51.7748 69.4878 1.26759
H 47.309 5.19703 0.181198
H 46.3452 5.00277 1.70906
H 48.4695 5.29495 2.9636
H 48.0923 6.87191 1.87681
H 50.4929 6.12727 1.78585
H 49.6004 6.09051 0.273347
H 46.6762 0.76112 3.97717
H 49.0265 0.333202 4.12406
H 48.1428 68.8362 4.59558
H 48.6503 67.8924 2.12691
H 50.102 68.1191 3.09085
C 22.8127 33.0669 4.633
C 23.194 34.2397 5.33796
C 22.759 35.5202 4.97996
C 21.9494 35.6194 3.81646
C 21.4501 34.4593 3.17416
C 21.9032 33.1813 3.55579
C 22.9967 37.7452 3.10949
C 23.3277 38.7781 4.03871
C 31.0323 35.8418 3.45656
C 23.7801 36.9656 2.18921
C 30.9358 36.9093 4.27213
C 24.6468 39.0226 4.26427
C 29.7506 35.4745 2.70607
C 29.0053 38.4889 5.08535
C 27.6808 38.7792 4.7793
C 26.3598 36.2512 2.18088
C 29.5513 37.3753 4.38048
C 25.1517 37.1089 2.5869
C 28.8514 36.5028 3.35805
C 25.5276 38.1515 3.50067
C 26.9448 37.972 3.8197
C 27.5242 36.8235 3.14159
C 25.2998 39.8645 5.36506
C 26.8896 39.9967 5.17838
O 22.3213 39.4971 4.63725
O 29.7232 39.3025 5.87147
C 29.1447 34.0368 2.89579
C 21.6445 37.0398 3.27171
C 32.3649 35.2117 3.03127
H 23.1446 32.0523 4.93521
H 23.8941 34.1422 6.15351
H 23.1749 36.4219 5.49046
H 20.7463 34.5024 2.32142
H 21.5829 32.2522 3.07466
H 23.447 36.1496 1.50076
H 31.814 37.3207 4.80136
H 29.8841 35.7598 1.67317
H 26.1457 35.1585 2.26089
H 26.6084 36.5039 1.19544
H 24.9145 40.8725 5.50396
H 25.1358 39.419 6.3499
H 27.162 40.7716 4.40055
H 27.3638 40.4162 6.07843
H 22.7911 40.0911 5.29355
H 30.6779 39.0827 5.95741
H 28.3146 33.825 2.1967
H 28.5635 33.9932 3.7973
H 29.8677 33.1605 2.79685
H 21.1715 36.972 2.27111
H 21.0653 37.5975 3.99096
H 32.1597 34.1299 2.8998
H 33.1089 35.4238 3.79633
H 32.6769 35.6435 2.08048
C 5.66836 1.75884 11.6749
C 4.56403 2.23345 12.3193
C 66.8128 3.66262 9.14676
C 5.60893 1.41467 10.2955
C 66.772 2.83503 8.02637
C 67.8272 3.46085 10.1603
C 3.2856 2.22936 11.7032
C 68.1852 1.23538 6.65072
C 69.3445 0.455722 6.62416
N 3.98097 0.895893 8.36904
C 1.67538 0.102513 7.51401
C 69.9629 2.11263 11.0089
C 67.7574 1.72042 7.91898
C 4.41703 1.33813 9.62889
C 68.6442 2.35253 10.1659
C 0.2362 0.234737 7.74341
C 2.56785 0.624648 8.4291
C 3.25293 1.62663 10.4361
C 0.690781 1.18701 10.0182
C 68.4692 1.37691 9.11756
C 2.07253 1.09378 9.6683
C 69.7725 0.658975 9.04804
C 66.0297 3.20495 6.75231
C 67.0436 3.2521 5.70532
C 67.4573 1.74143 5.40035
C 69.7632 69.8003 5.32995
C 1.29833 69.8058 4.97864
C 2.16404 69.431 6.20897
O 68.043 4.45125 11.0768
C 69.4554 1.49736 12.3501
C 69.4471 2.77169 13.2599
C 65.5227 4.62401 7.02699
C 7.05672 1.15347 9.81388
H 6.64393 1.74785 12.144
H 4.696 2.28278 13.4117
H 66.1236 4.49094 9.18871
H 2.41441 2.47418 12.2774
H 4.44919 0.691049 7.44116
H 0.549549 2.96985 11.2074
H 65.2256 2.50095 6.60405
H 67.9192 3.85849 5.91631
H 66.623 3.61667 4.80553
H 68.1001 1.71162 4.53943
H 66.5397 1.13461 5.20353
H 69.1268 0.199614 4.49985
H 69.3082 68.8236 5.40566
H 1.57147 0.750094 4.46512
H 1.55201 69.215 4.16626
H 2.10762 68.3814 6.38425
H 3.24738 69.6457 6.02173
H 68.7811 4.15794 11.662
H 68.3963 1.0586 12.2528
H 0.0996347 0.68016 12.7646
H 0.369731 3.41633 13.1604
H 68.5138 3.36608 13.1164
H 69.2846 2.44903 14.3234
H 64.8348 4.98932 6.24036
H 64.8929 4.62902 7.94593
H 66.3996 5.31037 7.17066
H 7.30388 1.80118 8.96845
H 7.27741 0.0418507 9.7116
H 7.81093 1.41499 10.5857
C 51.3306 3.5333 60.503
C 49.9803 3.90041 59.9962
C 48.8208 3.26958 64.5357
C 51.3636 3.18574 61.8973
C 48.9299 4.01718 60.9652
C 50.0985 2.94228 64.2742
N 48.1113 3.74076 63.4119
C 50.2871 3.27631 62.8255
C 49.0101 3.71753 62.3196
C 52.4312 3.55806 59.6091
C 52.3192 3.74799 58.2439
C 50.9807 3.93126 57.6946
C 49.8997 4.16986 58.5896
C 52.7232 2.67907 62.4363
C 53.6351 2.22751 61.333
C 53.822 3.33183 60.2744
C 47.607 4.38343 60.2905
C 47.9311 5.46317 59.0819
C 48.6664 4.85844 58.0359
C 48.3241 3.03941 65.9189
C 49.138 1.74044 66.5771
C 50.5502 2.09215 66.6675
C 51.0884 2.22978 65.2735
C 51.0319 3.95688 56.1914
O 50.0947 3.77867 55.4527
O 53.3893 3.69278 57.4126
C 48.9759 5.93618 57.008
C 47.9807 6.0308 55.7797
C 51.3218 1.03495 67.3911
C 46.6096 5.11576 61.2365
C 50.662 3.36475 67.4686
C 47.8335 3.72011 57.4792
H 47.082 3.82386 63.425
H 53.1956 3.48492 63.0156
H 52.4305 1.76507 63.0801
H 54.5687 1.88228 61.7459
H 53.1735 1.36743 60.8698
H 54.5831 3.13459 59.5373
H 54.0843 4.24926 60.7371
H 47.2096 3.4796 59.8674
H 48.5862 6.28772 59.4466
H 47.0571 5.96262 58.6512
H 47.2261 2.88185 65.879
H 48.4755 3.96425 66.5377
H 48.9917 0.853758 65.9442
H 48.7205 1.56847 67.6227
H 51.2359 1.2109 64.8154
H 52.0665 2.70931 65.2088
H 52.001 4.19591 55.7364
H 54.2327 3.90291 57.8732
H 50.0185 5.82573 56.6141
H 48.9783 6.95069 57.5181
H 47.9947 5.11897 55.1082
H 46.9393 6.18163 56.1385
H 48.2721 6.83458 55.1033
H 52.3289 1.40965 67.6997
H 51.6117 0.211296 66.697
H 50.7881 0.606427 68.2707
H 46.3127 4.46497 62.0535
H 47.1382 5.93704 61.7576
H 45.7869 5.53755 60.6028
H 51.6948 3.48241 67.8726
H 49.9854 3.36949 68.401
H 50.396 4.25003 66.8329
H 46.7459 3.8903 57.618
H 48.1043 3.63921 56.4191
H 48.0481 2.73974 57.9752
C 39.3607 40.4437 13.7876
C 40.8151 40.2858 13.468
C 40.079 38.8649 18.3441
C 41.2603 38.2074 17.9118
C 38.7047 40.2602 15.0614
C 41.477 39.4757 14.4632
C 39.3305 39.6472 17.4666
C 41.6863 38.3892 16.6318
C 39.5613 39.7086 16.0921
C 40.8955 39.1608 15.7044
C 38.576 41.0829 12.7833
C 39.1996 41.6593 11.6487
C 40.5809 41.631 11.502
C 41.4031 40.8882 12.3418
N 37.4282 40.484 15.3022
C 36.6738 41.2048 14.1721
C 37.0657 40.7933 12.6924
C 42.7022 38.6369 14.0467
O 43.8321 38.8165 14.4134
C 42.2533 37.4386 13.2691
O 42.7367 40.8489 12.0873
O 41.9462 37.3793 18.7629
C 36.7748 40.5265 16.6212
C 35.1545 41.134 14.201
C 38.298 42.457 10.6661
C 36.0437 42.5758 20.8181
C 37.2894 42.9074 21.4323
C 38.4731 42.7861 20.7368
C 38.4815 42.3144 19.4147
C 37.2635 42.0292 18.8104
C 36.0606 42.0768 19.5365
C 37.0538 41.8965 17.258
C 39.8614 42.2467 18.6741
H 39.7394 38.6637 19.3931
H 38.5154 40.169 17.9679
H 42.6601 37.987 16.3551
H 41.0391 42.1689 10.634
H 36.9919 42.2775 14.311
H 36.51 41.3538 11.9251
H 36.8016 39.7075 12.5344
H 43.108 36.7297 13.0701
H 41.593 37.7397 12.3735
H 41.5938 36.7548 13.9118
H 43.1152 40.1942 12.7582
H 41.444 37.2961 19.6218
H 35.6674 40.4186 16.5004
H 37.1457 39.6565 17.1985
H 34.7729 41.3639 15.2267
H 34.7361 41.8246 13.4356
H 34.9464 40.0302 14.1524
H 38.8763 43.2164 10.0894
H 37.5229 43.0089 11.2569
H 37.8009 41.72 10.0002
H 35.132 42.7718 21.3752
H 37.2669 43.3479 22.4439
H 39.3833 43.1268 21.2435
H 35.1192 41.8034 19.0499
H 37.8864 42.4374 16.6952
H 36.1103 42.4264 17.0091
H 40.4166 41.3876 19.0568
H 40.4398 43.1481 18.9326
H 39.6922 42.1423 17.6071
C 56.575 10.9276 3.43677
C 53.6657 4.11959 3.30035
C 55.6698 11.1975 4.52251
C 52.9368 4.36211 4.57355
C 56.6222 9.62286 2.91086
C 54.4832 5.10609 2.64644
C 54.3029 10.5021 6.47029
C 52.4865 5.79647 6.65978
C 53.8963 9.41378 7.25245
C 52.7314 7.14826 7.26796
C 55.4652 7.36507 2.75038
C 54.9765 10.1532 5.21301
C 53.2355 5.56127 5.30479
C 53.6102 8.07233 6.61506
C 55.8115 8.59241 3.45113
C 54.6725 6.34125 3.31872
C 55.1058 8.7839 4.77106
C 54.1109 6.50896 4.73472
C 54.3352 7.77825 5.38649
C 57.3561 11.974 2.90746
C 57.2337 13.2379 3.39664
C 56.4256 13.5288 4.49338
C 55.5421 12.5863 5.04449
C 54.5576 12.9026 6.06487
C 53.9939 11.8946 6.80315
C 53.5282 2.80962 2.72789
C 52.537 1.97449 3.23522
C 51.8239 2.24842 4.38353
C 52.0192 3.40812 5.12693
C 54.225 9.36537 8.72462
O 54.3454 8.28564 9.26957
O 54.3503 2.48487 1.71566
C 55.8361 7.3853 1.24064
H 57.2893 9.354 2.07256
H 55.0742 4.83263 1.73092
H 51.4346 5.77847 6.37944
H 52.7589 5.08924 7.4262
H 52.1102 7.51902 8.05528
H 57.9266 11.7937 1.96863
H 57.8141 14.0671 2.96825
H 56.3569 14.5223 4.90884
H 54.2835 13.9455 6.23732
H 53.3054 12.0757 7.61182
H 52.3617 1.04419 2.7115
H 51.139 1.48841 4.78536
H 51.4572 3.61644 6.0371
H 54.3744 10.334 9.21146
H 55.1771 3.02559 1.87179
H 55.3691 6.5112 0.719618
H 56.9336 7.51908 1.18073
H 55.3211 8.26443 0.790694
C 18.7999 38.2342 54.6398
C 19.99 38.0505 55.5027
C 23.4376 44.9308 57.5943
C 18.5902 39.5016 53.9465
S 22.3359 45.7339 56.4577
C 23.3493 43.5788 57.7381
C 20.8798 39.1978 55.8228
C 21.1282 43.8119 54.7436
C 19.7397 41.9342 53.3855
C 22.0775 41.6398 56.416
C 21.9249 43.9987 55.8425
C 22.4672 43.0274 56.7037
C 19.4893 40.5638 54.1136
C 20.9111 42.5221 54.2421
C 20.6215 40.3087 54.8974
C 21.4479 41.5038 55.0638
C 21.6397 39.278 56.9997
C 22.174 40.5527 57.293
C 17.8298 37.1943 54.8481
C 18.1327 36.0325 55.5674
C 19.3903 35.7822 56.1277
C 20.3007 36.8296 56.1616
C 21.6504 36.903 56.9375
C 21.5279 38.0484 57.8738
C 17.3651 39.5589 53.0459
O 16.422 40.2502 53.3372
O 20.5954 44.8865 54.0806
C 18.5336 42.8759 53.0329
C 24.2228 42.8822 58.8246
C 22.56 37.947 58.9835
C 20.2362 41.4494 51.9729
C 16.3848 37.3139 54.3231
H 24.0405 45.5882 58.2104
H 22.4751 40.8325 58.3155
H 17.3692 35.2652 55.6809
H 19.5288 34.8495 56.5984
H 21.7632 35.9013 57.4416
H 22.4826 37.0646 56.2003
H 20.485 37.995 58.281
H 17.1676 38.9346 52.1398
H 20.9326 45.6963 54.5611
H 17.6553 42.3037 52.6781
H 18.1523 43.5183 53.8464
H 18.8838 43.4896 52.1753
H 23.5241 42.3454 59.5232
H 24.8713 43.6555 59.2906
H 24.8771 42.1947 58.2296
H 22.5822 38.8151 59.6538
H 22.2199 37.2084 59.736
H 23.5774 37.6286 58.6457
H 20.3967 42.3314 51.3017
H 21.0776 40.7108 52.0819
H 19.4164 40.8665 51.5118
H 15.7573 36.5082 54.7823
H 16.2584 37.3549 53.1958
H 15.9842 38.275 54.7115
C 37.4125 68.8378 15.6942
C 37.8036 0.150654 15.7676
C 38.5689 0.691565 14.7271
C 38.902 69.9019 13.6273
C 38.4418 68.5708 13.5398
C 37.6908 68.0177 14.5834
O 39.6577 0.402635 12.6275
C 36.5972 68.3041 16.8926
C 34.4976 0.754753 15.6655
C 34.1997 4.96834 10.2601
C 33.7352 1.96578 16.0046
C 33.3785 5.39191 11.2958
C 35.1857 0.546526 14.4475
C 34.946 3.71439 10.307
C 33.5108 2.97928 14.9774
C 33.3181 4.72149 12.5576
C 35.5353 1.66858 12.0084
C 35.0714 1.52898 13.4908
C 34.9619 2.9796 11.5164
C 34.2943 2.69133 13.7817
C 34.1637 3.57251 12.5836
C 32.5707 4.0861 14.8649
C 32.5207 4.90012 13.7731
C 34.5354 69.761 16.704
C 34.0758 70.01 18.0297
C 33.4462 1.26528 18.3203
C 33.2622 2.22546 17.3315
C 35.7033 3.25612 9.13801
O 35.7482 3.85956 8.09654
C 37.0378 1.62336 11.8181
C 32.5392 6.67298 11.0809
C 35.0764 68.36 16.4939
H 37.5139 0.776283 16.6037
H 39.0018 1.73709 14.7929
H 38.6512 67.9194 12.6404
H 37.3284 66.9567 14.6089
H 39.7114 1.38136 12.792
H 36.7454 68.9082 17.8423
H 36.9461 67.2417 17.1117
H 34.293 5.57429 9.30982
H 35.7926 69.653 14.2331
H 35.0742 0.938407 11.3708
H 31.8362 4.34395 15.6594
H 31.7557 5.69734 13.8871
H 34.2023 69.1986 18.7795
H 33.1862 1.58145 19.3477
H 32.7877 3.15655 17.6559
H 36.3336 2.28344 9.1007
H 37.4411 1.66147 10.7758
H 37.5385 2.44161 12.3909
H 37.4365 0.655897 12.2251
H 32.8666 7.52488 11.7014
H 31.5215 6.52635 11.4748
H 32.5388 6.96762 10.0322
H 34.9143 68.0109 15.4355
H 34.4983 67.6173 17.0618
C 61.3026 13.5529 67.9257
C 60.2292 14.0977 67.0598
N 64.6692 14.8502 64.737
C 63.8353 15.7686 64.283
C 62.6429 13.4626 67.5059
C 60.542 14.9543 66.0043
C 64.2585 14.0636 65.6846
C 62.457 15.8429 64.6503
C 62.9483 14.0665 66.275
C 61.8856 14.9223 65.592
C 61.0265 13.3357 69.3459
C 59.7619 13.0362 69.7287
C 58.6862 13.2623 68.7557
C 58.8663 13.8288 67.5013
C 63.6714 12.6214 68.3015
C 63.1978 12.2874 69.7264
C 62.2895 13.3544 0.267422
C 64.123 16.9409 63.3898
O 63.2822 17.5976 62.8358
C 65.5423 17.2055 63.3266
C 62.3928 11.0378 69.7939
C 57.3413 13.0383 69.4929
C 59.5491 15.9366 65.3739
C 64.9652 19.1744 65.3466
C 65.9645 18.2127 65.5885
C 66.7215 18.3129 66.8233
C 66.5974 19.433 67.6394
C 65.6051 20.3667 67.3281
C 64.7921 20.2847 66.1995
O 66.2289 17.2563 64.7563
C 68.0131 17.5886 67.2542
C 67.5439 19.5991 68.8564
H 64.9959 13.3566 66.0207
H 61.8454 16.5818 64.0969
H 59.5289 12.7936 0.816432
H 57.9831 14.1139 66.9183
H 64.6865 12.9951 68.2566
H 63.9399 11.7387 67.7049
H 64.1623 12.1037 0.282079
H 61.9727 13.0931 1.32794
H 62.7724 14.3399 0.22178
H 66.1267 16.4205 62.8728
H 65.7883 18.2154 62.866
H 61.9148 11.0051 0.81993
H 61.5018 11.0794 69.1065
H 63.0671 10.1457 69.5661
H 56.5469 13.2757 68.6744
H 57.2002 13.8167 0.263903
H 57.3963 12.0493 70.0116
H 58.6452 15.3186 65.1686
H 59.24 16.7216 66.1099
H 59.9401 16.4097 64.4364
H 64.3368 19.0841 64.4014
H 65.534 21.2134 67.9395
H 63.9577 21.017 65.9381
H 68.1253 16.644 66.6293
H 68.9284 18.1275 66.9247
H 68.1064 17.4076 68.3563
H 68.5865 19.3668 68.5114
H 67.4995 20.6784 69.0951
H 67.2516 18.9968 69.7271
C 44.0739 21.0598 9.1147
C 44.3241 19.78 8.49006
C 47.6103 22.89 6.71984
C 47.3983 21.842 5.68648
C 44.2056 22.2436 8.26261
N 45.0631 19.6706 7.44368
C 46.5519 23.0691 7.594
C 46.5804 20.6671 5.91594
C 45.4815 22.0503 7.60488
C 45.6495 20.7176 7.00089
C 43.8026 21.1575 10.5633
C 44.0307 19.8394 11.2274
C 44.1318 18.5581 10.5201
C 44.01 18.5523 9.15196
C 48.783 23.7643 6.6687
C 49.4401 23.834 5.42463
C 49.0413 22.9865 4.37785
C 48.0277 22.0761 4.40558
C 43.5728 22.3542 11.3167
C 43.7831 22.2539 12.6821
C 43.9817 21.0472 13.3221
C 44.0498 19.8512 12.6367
C 46.5118 24.1012 8.58561
O 45.5891 24.3031 9.36421
O 44.3988 17.42 11.177
O 43.3516 23.2761 8.02851
O 49.1469 24.504 7.7211
O 43.2193 23.5159 10.7047
C 46.7961 19.293 5.41063
C 49.5965 19.9461 4.78745
C 50.2281 20.1844 3.58417
C 50.3432 19.1551 2.64435
C 50.028 17.8545 3.10553
C 49.4104 17.5976 4.34467
C 49.0371 18.7109 5.13611
O 48.0458 18.5949 6.04501
H 44.0686 17.6725 8.51379
H 50.2429 24.5716 5.21687
H 49.4627 23.0651 3.32486
H 47.7572 21.4129 3.56331
H 43.8412 23.1115 13.3223
H 44.0884 21.0551 14.402
H 44.087 18.9278 13.2008
H 47.3656 24.8103 8.65675
H 44.5359 16.7268 10.52
H 42.666 23.1178 8.74749
H 49.7611 25.1703 7.45079
H 43.2065 24.32 11.3082
H 45.9812 18.5804 5.72062
H 46.986 19.2247 4.28069
H 49.485 20.7877 5.44772
H 50.6518 21.1494 3.35179
H 50.7325 19.3341 1.63954
H 50.325 16.9614 2.46206
H 49.1816 16.5771 4.66627
N 25.063 1.17916 67.9266
C 24.1656 0.341839 68.2531
C 23.7325 0.106521 69.5413
C 24.4308 0.70648 0.618201
C 25.5615 1.42362 0.280624
C 25.6873 1.80635 68.8948
C 26.7186 2.90551 68.8675
O 27.4015 3.21347 69.8064
C 26.6749 3.81799 67.6206
O 23.6159 69.4298 67.4338
C 27.854 4.81626 67.8532
C 26.6219 1.32984 63.7509
C 27.4165 1.98911 64.7095
C 25.6418 68.2428 67.3054
C 26.8069 68.6514 68.1086
C 26.1088 0.0648417 64.0899
C 27.8435 1.49204 65.9409
C 25.6652 68.4724 65.878
C 27.4403 69.8141 67.7266
C 26.4096 69.5613 65.3863
C 27.2731 0.280947 66.3695
C 25.1438 69.3202 63.1223
C 24.7498 67.9703 63.6806
C 24.3586 68.1722 65.1155
C 23.5816 67.3668 62.9604
C 27.968 3.39887 64.4476
C 28.2215 0.426309 68.911
C 24.2925 68.1564 67.8502
C 20.1918 67.5855 65.6753
C 20.9195 68.7029 65.353
C 21.9048 68.6295 64.3519
C 22.3147 67.3843 63.8605
C 21.6673 66.2119 64.2963
C 20.5901 66.3249 65.1898
C 19.767 65.1612 65.5279