37918
Lattice='70.0 0.0 0.0 0.0 70.0 0.0 0.0 0.0 70.0' Properties=species:S:1:pos:R:3 Timestep:=T pbc=F F F 1229=T Atoms.=T
C 63.6722 17.3703 52.3082
C 63.2802 16.0199 52.3833
C 63.1081 15.2863 51.2048
C 63.4545 15.8788 49.9567
C 63.8865 17.2213 49.8919
C 63.9477 17.9445 51.0408
C 63.7475 18.0702 53.6296
O 64.276 19.1409 53.8184
C 64.3272 19.4346 50.8674
H 63.0046 15.5608 53.35
H 62.8279 14.2039 51.3092
H 63.3131 15.3394 48.9812
H 64.1665 17.7069 48.9035
H 63.266 17.5166 54.4695
H 63.9191 19.971 51.7653
H 63.9537 19.8405 49.8737
H 65.4796 19.5318 50.7583
C 41.8651 3.97324 69.6817
C 40.5663 4.48253 69.7592
C 39.5679 3.74041 69.117
C 39.9548 2.71691 68.1425
C 41.2751 2.33989 68.01
C 42.2197 2.90973 68.8137
C 39.0091 1.96595 67.267
O 37.8153 2.06675 67.3637
O 40.2344 5.65294 0.434283
O 41.5394 1.34991 67.1192
O 42.7619 4.45798 0.565169
C 38.1321 3.87326 69.7017
H 43.2039 2.46168 68.8509
H 39.364 1.36156 66.3688
H 41.133 6.06036 0.608797
H 42.48 1.09022 67.1742
H 43.6077 3.92313 0.683272
H 38.0459 4.79111 0.284655
H 37.459 3.65583 68.8213
H 37.9487 3.02521 0.391692
C 29.8505 52.1674 38.7978
C 30.2472 53.5018 38.4513
C 29.2523 54.4896 38.3477
C 27.9359 54.2216 38.7422
C 27.5095 52.8717 38.9759
C 28.4947 51.8487 38.9668
C 30.9327 51.033 38.9265
O 31.2019 50.5552 39.9831
C 31.6241 50.6091 37.6244
C 31.7381 53.7052 38.2972
O 32.1738 54.71 37.833
C 30.8247 49.4359 37.0341
C 26.8576 55.3346 38.8126
C 28.0223 50.3683 39.0238
C 29.6235 55.878 37.7883
C 26.0611 52.4675 39.278
H 32.6954 50.2649 37.8416
H 31.7464 51.4329 36.8429
H 32.5368 52.9183 38.5439
H 31.3376 49.1163 36.0778
H 29.8129 49.8142 36.7703
H 30.7578 48.6075 37.7751
H 26.2389 55.2296 39.7618
H 27.4336 56.3005 38.8476
H 26.1884 55.2815 37.9018
H 27.7749 50.0122 37.9936
H 27.1031 50.2736 39.6479
H 28.9112 49.8308 39.4245
H 29.9722 56.5303 38.6258
H 30.4208 55.7108 37.0362
H 28.7551 56.3626 37.3103
H 25.3771 53.3517 39.0661
H 25.7551 51.5903 38.6428
H 26.0312 52.1893 40.3656
N 60.0437 7.17912 0.844811
C 59.6501 6.99638 69.5885
N 60.3854 6.61641 68.6097
C 61.6497 6.42279 68.7983
C 62.2302 6.4447 0.113643
C 61.2786 6.83079 1.11854
C 62.6465 6.17403 67.7559
O 63.8435 5.93714 67.9243
O 63.4693 6.17271 0.351816
C 68.1238 5.04053 68.538
C 67.9146 3.93118 69.3487
C 67.1408 4.0389 0.520632
C 66.3266 5.19335 0.722246
C 66.6108 6.35403 69.9199
C 67.6239 6.30555 68.9925
C 65.3785 5.4753 1.82928
O 65.6686 5.0534 2.91867
C 64.2433 6.35713 1.66683
O 68.7668 4.8183 67.3685
O 68.1681 7.46525 68.5784
H 58.598 7.28279 69.3768
H 61.5757 6.85863 2.1748
H 62.3543 6.34567 66.6886
H 68.3472 2.96608 69.1063
H 67.1408 3.25529 1.27123
H 66.0736 7.31922 0.104171
H 63.5184 6.18329 2.52799
H 64.5644 7.42659 1.56252
H 69.1034 3.94854 67.198
H 67.8442 8.16007 69.2253
C 67.3631 51.4843 0.594266
C 68.669 51.6143 1.28379
C 68.1161 55.3502 68.8735
C 67.1964 51.9522 69.2681
C 69.5368 52.5886 0.80582
C 67.2635 54.2569 68.5085
N 69.0859 54.9864 69.717
C 67.9949 53.1283 69.0127
C 69.0434 53.6005 69.8766
C 66.2287 50.9259 1.3109
C 66.5302 50.1688 2.55633
C 67.9135 50.2755 2.93025
N 68.8375 50.9494 2.38739
C 64.8536 51.0326 0.859217
C 63.9676 50.1966 1.44358
C 64.3994 49.1991 2.38599
C 65.5493 49.3254 3.1105
C 0.770693 52.7901 1.62069
O 1.35391 53.8398 1.73713
O 62.6288 50.4342 1.27603
C 65.8541 54.1063 69.1129
H 67.9213 56.3802 68.6019
H 66.2747 51.9468 68.6903
H 69.5633 55.7564 0.236147
H 68.1112 49.6912 3.87515
H 64.4902 51.7156 0.0233951
H 63.6248 48.3806 2.62093
H 65.7418 48.6232 3.94984
H 1.16637 52.053 2.32057
H 62.5871 51.4086 1.15234
H 65.7232 53.2535 69.824
H 65.0778 53.9425 68.3394
H 65.685 55.0177 69.7924
C 0.321793 43.9421 1.23862
C 69.893 44.8839 0.278711
C 69.6883 47.5295 4.01262
C 0.454386 44.2325 2.66972
C 69.9155 46.2624 0.68828
C 69.9303 46.2224 4.2892
N 69.8694 47.8969 2.70399
C 0.29253 45.5892 2.96977
C 0.0851731 46.6295 2.00767
C 0.492688 42.5464 0.895697
C 0.146101 42.2497 69.4944
C 69.5591 43.3451 68.7117
N 69.5674 44.5609 69.0492
C 0.676415 41.5212 1.87096
C 0.66519 40.1819 1.41137
C 0.646901 39.9626 0.0152963
C 0.277718 40.8881 69.0587
C 0.671957 41.8346 3.31878
C 0.62158 43.1571 3.66806
C 69.9153 45.5761 5.69377
C 69.8441 40.4366 67.6546
H 69.4259 48.2615 4.76747
H 69.6629 47.0453 69.9027
H 69.7288 48.8626 2.33309
H 69.3466 43.1669 67.5917
H 0.841612 39.3832 2.16803
H 0.89099 38.9653 69.6911
H 0.690399 41.1056 4.08553
H 0.695942 43.4647 4.7133
H 69.5364 44.545 5.71323
H 69.4216 46.2204 6.47347
H 0.92024 45.4403 5.99979
H 0.770842 40.155 67.1357
H 69.2023 39.5375 67.7908
H 69.3506 41.287 67.1046
C 61.0757 50.5875 11.4078
C 62.3871 49.991 11.6611
C 61.8479 50.1959 6.55284
C 63.0494 49.4964 6.84999
C 60.7199 50.8977 10.0421
C 63.1425 49.4037 10.5968
C 61.0184 50.5909 7.60591
C 63.4514 49.1774 8.1453
C 61.4496 50.3502 8.95461
C 62.7047 49.5807 9.28199
C 60.2488 50.9755 12.5573
C 60.8326 51.1439 13.7724
C 62.1682 50.7119 14.0192
C 62.9442 50.1612 13.0033
C 58.759 51.1527 12.3378
O 58.1165 52.0975 12.7413
C 62.7057 50.8105 15.4743
O 62.8084 51.8375 16.0858
C 62.9414 49.5045 16.1402
C 61.5927 48.8086 16.4741
C 59.9642 51.6786 14.9402
C 63.9731 49.109 5.66273
C 64.4282 49.7954 13.2044
C 59.6959 51.9942 9.71343
H 61.6317 50.3867 5.53281
H 64.0678 48.893 10.8137
H 60.0805 51.1286 7.4022
H 64.3843 48.6774 8.32204
H 58.2258 50.3659 11.6973
H 63.5089 49.6385 17.1017
H 63.5277 48.8643 15.4562
H 60.9736 49.4616 17.1419
H 61.066 48.6163 15.52
H 61.7483 47.778 16.9046
H 59.5739 52.6935 14.7059
H 60.5986 51.7325 15.91
H 59.0728 51.0105 15.0302
H 64.5707 49.9809 5.32805
H 63.3428 48.8603 4.79927
H 64.617 48.2574 5.86667
H 64.5604 48.6921 13.0869
H 65.0484 50.3179 12.4609
H 64.7527 50.1392 14.2172
H 58.9477 51.5369 9.04677
H 59.3366 52.5059 10.6006
H 60.1642 52.8183 9.13843
C 46.5958 31.3921 68.4989
C 46.1288 32.7135 67.9126
C 49.8985 30.9263 64.9349
C 49.4213 32.2337 64.3219
C 47.6729 30.7089 67.9463
C 46.743 33.1838 66.7349
C 49.3056 30.419 66.1264
C 48.4272 32.9381 64.962
C 48.2604 31.1948 66.7425
C 47.8109 32.4704 66.1316
C 45.8664 30.9149 69.6139
C 44.8322 31.6212 0.219014
C 44.4596 32.8319 69.6784
C 45.0339 33.364 68.5372
C 50.8826 30.264 64.2069
N 51.3966 30.7419 63.145
C 51.1054 31.8938 62.6546
C 50.1373 32.697 63.1364
C 48.1289 29.4083 68.5989
C 47.7563 29.3432 0.0744834
C 46.2694 29.5362 0.181089
C 46.3624 34.5436 66.2327
O 45.7787 34.7591 65.1975
C 46.8626 35.8249 67.0146
O 51.3138 29.1148 64.6807
O 51.6659 32.3432 61.4948
H 49.5494 29.4791 66.565
H 48.0695 33.8784 64.5537
H 44.2866 31.2382 1.13715
H 43.6487 33.4009 0.185958
H 44.6175 34.3092 68.1943
H 49.8107 33.6384 62.6171
H 47.6524 28.5475 68.0614
H 49.2372 29.407 68.5414
H 48.0861 28.4182 0.578712
H 48.2756 30.1493 0.646503
H 46.0412 29.517 1.28014
H 45.6698 28.7349 69.7063
H 46.5806 35.8386 68.0743
H 46.4818 36.6726 66.4685
H 47.9674 35.863 67.0735
H 51.9518 28.6279 64.0933
H 51.3846 33.1681 61.2031
C 59.1527 23.8692 25.4232
C 59.1711 22.8714 26.5275
C 64.0253 23.6225 25.0134
C 64.0242 22.6038 26.1034
C 60.3659 24.3867 24.891
C 60.4305 22.4657 27.016
C 62.8117 24.2684 24.6587
C 62.8094 22.1714 26.687
C 61.6206 23.9055 25.2532
C 61.6204 22.8462 26.3374
C 57.93 24.0869 24.7412
C 56.7474 23.3923 25.0677
C 56.7942 22.5077 26.2032
C 57.9232 22.294 26.9386
C 65.2421 24.0578 24.4516
C 66.4662 23.6653 25.0351
C 66.4715 22.7334 26.1338
C 65.289 22.1303 26.6096
C 60.2494 25.4769 23.8064
C 58.8844 26.0911 23.6009
C 57.8716 24.9681 23.4733
O 57.7112 21.3982 27.9477
C 67.7701 24.3091 24.5567
C 67.7983 22.3736 26.8681
H 60.5363 21.7513 27.8025
H 62.8915 25.028 23.8514
H 62.8088 21.4259 27.4931
H 55.8843 23.4423 24.3854
H 55.947 21.879 26.5519
H 65.1947 24.7501 23.649
H 65.2713 21.3994 27.4509
H 60.5867 25.032 22.8572
H 60.961 26.3009 24.0689
H 58.6372 26.7098 24.4953
H 58.8877 26.8068 22.7299
H 56.8623 25.4184 23.2709
H 58.1797 24.3702 22.5931
H 58.5703 21.3637 28.3407
H 67.6006 24.9173 23.6298
H 68.1583 25.0001 25.3648
H 68.5406 23.4891 24.3626
H 67.9706 23.1238 27.6455
H 68.6356 22.3806 26.1156
H 67.7461 21.3976 27.3759
C 36.3119 26.1701 6.71143
C 36.805 25.1678 5.70713
C 40.7666 28.3588 6.45654
C 41.1256 27.3696 5.43514
C 37.1193 27.3057 7.07351
C 37.9982 25.4453 5.00714
C 39.401 28.3534 6.93311
C 40.1468 26.5349 4.86489
C 38.5042 27.4469 6.55536
C 38.8512 26.4907 5.45341
C 35.0046 26.0753 7.23747
C 34.2601 24.8444 6.95733
C 34.8073 23.7549 6.15897
C 36.0333 23.9138 5.56455
C 41.7373 29.3007 6.94984
C 43.0465 29.2451 6.45387
C 43.4604 28.1864 5.581
C 42.5417 27.3311 5.07612
C 34.3851 27.186 7.95782
C 32.9497 27.091 8.16952
C 32.2836 25.8914 7.87135
C 32.8639 24.8296 7.21959
C 35.2144 28.2548 8.36597
C 36.5156 28.2937 7.8885
S 34.7192 29.6827 9.34347
C 43.0185 26.1376 4.22304
H 38.3115 24.8003 4.20879
H 39.0293 29.0728 7.68427
H 40.4217 25.9202 4.0384
H 34.2391 22.8317 5.94328
H 36.4001 23.1148 4.89998
H 41.4198 30.0754 7.66069
H 43.7471 30.0004 6.83983
H 44.5054 28.1429 5.30173
H 32.368 27.9773 8.49604
H 31.1798 25.8116 8.09071
H 32.2264 24.0149 6.89427
H 37.0927 29.1778 8.1772
H 33.5114 29.2271 9.7205
H 42.5144 26.1479 3.21369
H 44.1761 26.1892 4.10469
H 42.7801 25.189 4.77317
C 5.71767 63.2351 61.7663
C 4.54764 62.4785 61.9037
C 3.6785 62.6798 62.9811
N 4.01496 63.4126 63.9778
C 5.13196 64.044 63.9956
C 6.02565 64.0562 62.8535
C 2.36602 61.9489 62.8525
O 2.32074 60.8231 62.4045
C 5.73969 64.8075 65.2007
C 1.30966 66.1559 67.1189
C 2.59883 66.5281 67.7853
C 3.9976 66.4004 63.2726
C 1.16013 65.9292 65.7229
C 3.79659 66.653 67.021
C 2.72245 66.0796 63.5486
C 4.69693 66.8983 64.5265
C 2.43201 66.0909 65.0099
C 3.6183 66.5449 65.6137
C 0.182567 66.1031 67.996
C 0.290344 66.5024 69.3608
N 1.41323 66.938 69.8524
C 2.45909 66.9741 69.1483
C 68.8532 65.74 67.4064
C 67.7726 65.5488 68.3076
C 67.9709 65.7478 69.666
C 69.1542 66.2596 0.205984
C 68.7509 65.6341 65.9909
C 69.843 65.7792 65.2049
C 6.01556 66.2131 64.7471
H 6.43485 63.0054 60.9224
H 4.25269 61.699 61.1541
H 6.92038 64.6527 62.884
H 1.44118 62.4417 63.17
H 5.03123 64.9504 66.1021
H 6.70857 64.3264 65.4118
H 4.4325 66.5803 62.2722
H 4.72917 66.9585 67.4369
H 2.07093 65.8105 62.7055
H 4.93023 67.9727 64.4769
H 3.46647 67.3969 69.503
H 66.8222 65.2121 67.8885
H 67.1481 65.5226 0.338282
H 69.1886 66.514 1.26925
H 67.6803 65.4548 65.6794
H 69.7138 65.8245 64.0966
H 6.64921 66.6676 65.5351
H 6.57495 66.2148 63.8315
C 47.3229 37.7095 2.18861
C 48.0262 37.1291 1.15457
C 48.6331 37.9415 0.194483
C 48.56 39.3428 0.351584
C 47.7512 39.9238 1.31664
C 47.1972 39.087 2.30503
C 48.266 40.8236 68.33
C 48.0253 39.9772 67.2323
C 43.0001 45.8459 64.1791
C 47.7581 42.1132 68.6066
C 42.7176 44.6212 63.6879
C 47.026 40.4102 66.3194
C 43.9161 45.8284 65.3844
C 43.7548 42.2353 64.0452
C 44.7747 41.5451 64.682
C 45.9553 43.833 67.57
C 43.5406 43.6128 64.4156
C 46.7985 42.5092 67.7342
C 44.2094 44.3051 65.47
C 46.3956 41.6263 66.6664
C 45.3206 42.249 65.8263
C 45.114 43.5776 66.3228
C 46.7163 39.8365 64.9026
C 45.331 40.1211 64.4231
O 48.746 38.8227 67.0642
O 43.0602 41.6061 63.0912
C 43.1222 46.1867 66.6854
C 49.3179 40.2874 69.3512
C 42.473 47.1724 63.5961
H 46.8498 37.0514 2.9441
H 48.0788 36.03 1.02866
H 49.1685 37.4313 69.3878
H 47.6127 41.0161 1.41379
H 46.6214 39.5244 3.13477
H 48.1022 42.7095 69.4379
H 42.0889 44.4646 62.8308
H 44.7914 46.4997 65.2505
H 45.3171 44.011 68.4817
H 46.6671 44.7284 67.5656
H 47.4957 40.3109 64.2046
H 46.8643 38.692 64.8675
H 45.3234 40.0045 63.3275
H 44.578 39.4117 64.8212
H 48.3852 38.4249 66.1569
H 42.285 42.0287 62.688
H 43.8876 46.2554 67.4981
H 42.3447 45.4622 66.9389
H 42.637 47.1956 66.578
H 49.8589 41.0901 69.9061
H 50.1081 39.666 68.8925
H 43.3764 47.7599 63.2087
H 41.9401 47.6969 64.4538
H 41.7634 46.9414 62.7568
C 3.30263 62.5907 11.6502
C 4.60071 63.1399 12.0356
C 5.1263 58.6008 13.1707
C 3.07702 61.1531 11.5256
C 5.59139 62.28 12.7072
C 4.13408 58.9783 12.2932
C 6.08692 59.748 13.3849
C 4.28196 60.3943 11.8844
C 5.45121 60.9263 12.5118
C 2.08728 63.2122 12.0631
C 2.25579 64.5107 12.7322
C 3.4952 65.2314 12.5881
C 4.67065 64.5508 12.2744
C 0.790285 62.584 12.0284
C 69.7048 63.1592 12.7829
C 69.9646 64.282 13.5584
C 1.22281 64.9073 13.638
C 0.594906 61.1747 11.6666
C 1.83083 60.5092 11.6654
C 1.76747 58.9984 12.065
C 2.98239 58.1888 11.6201
C 6.35201 62.749 13.941
C 6.08128 64.2361 14.2512
C 5.94928 65.1148 12.8637
C 4.70489 64.3675 14.9521
C 7.83258 62.4166 13.9
C 7.14918 64.8474 11.9188
C 69.2537 60.4495 11.8044
H 5.23711 57.5518 13.5
H 6.29096 59.988 14.4648
H 7.00047 59.4928 12.9119
H 3.50978 66.2465 12.8226
H 68.6876 62.7838 12.8708
H 69.1638 64.6278 14.2277
H 1.44585 65.6572 14.414
H 1.77902 59.0628 13.1446
H 0.768245 58.6425 11.7204
H 2.94146 57.1201 11.9547
H 3.13297 58.3333 10.5168
H 5.95525 62.1867 14.7828
H 6.91355 64.6222 14.7948
H 5.85839 66.1797 13.0165
H 4.613 63.8902 15.9719
H 4.37934 65.4162 14.9789
H 3.96278 63.7921 14.3555
H 7.93305 61.3243 13.8302
H 8.34282 62.8388 13.0037
H 8.3774 62.7314 14.8294
H 7.23863 63.7479 11.6796
H 7.07941 65.4985 10.9806
H 8.07627 65.1814 12.404
H 68.4307 61.2208 11.8316
H 69.067 59.7721 10.8911
H 69.295 59.8131 12.7469
C 64.7683 33.1045 58.3961
C 64.5268 33.3214 56.9286
C 64.2454 37.6552 58.3397
C 64.7382 34.1706 59.3025
C 64.4494 34.5958 56.3303
C 64.4123 36.7577 59.3103
N 64.3173 37.0798 57.0636
C 64.5843 35.4331 58.6363
C 64.4277 35.6897 57.2021
C 65.0891 31.7821 58.8891
C 65.2498 30.6623 57.9539
C 64.922 30.8682 56.5554
C 64.4966 32.1284 56.1512
C 65.211 31.5281 60.2934
C 65.1571 30.2223 60.821
C 65.0842 29.1159 59.8798
C 65.4707 29.3681 58.5274
C 64.6221 33.9168 60.8387
C 65.4395 32.7114 61.2687
N 64.5363 34.6772 54.94
C 64.2477 33.5234 54.1014
C 63.685 32.2882 54.8272
C 65.2763 29.7476 55.5537
C 66.2497 28.7723 56.1375
C 65.9117 28.2671 57.5688
O 65.1538 30.1142 62.1666
O 64.6039 27.926 60.2833
C 65.3002 35.7597 54.2956
C 65.4743 35.7136 52.7688
H 64.1144 38.7328 58.3848
H 64.5333 36.9331 60.3774
H 64.2054 37.5471 56.1689
H 63.5575 33.6414 61.0728
H 65.0084 34.8016 61.4238
H 66.5292 33.0148 61.3353
H 65.1189 32.3845 62.3197
H 63.6352 33.7964 53.2352
H 65.2053 33.2693 53.5801
H 63.7299 31.3873 54.1641
H 62.5323 32.447 55.0179
H 65.6199 30.1064 54.5598
H 64.2989 29.2713 55.4995
H 66.441 27.9235 55.4292
H 67.2787 29.2492 56.1633
H 65.0109 27.641 57.3912
H 66.716 27.5578 57.943
H 65.1609 29.163 62.2826
H 64.4748 27.426 59.4847
H 64.8248 36.7595 54.6006
H 66.3266 35.8875 54.7425
H 64.4803 35.612 52.2723
H 66.0908 34.8402 52.4959
H 65.9361 36.6846 52.4867
C 40.4271 23.9174 52.9824
N 40.3157 23.6005 51.6973
C 41.0387 24.2547 50.8631
N 41.9487 25.1735 51.1803
C 42.0584 25.5053 52.4041
C 41.2238 24.9902 53.451
C 39.6518 23.0701 53.8613
O 39.4639 23.2288 55.0539
C 43.1295 26.4472 52.966
C 41.1479 25.5475 54.8752
N 42.0266 28.3572 55.9225
C 40.9885 29.5818 60.4846
C 42.4149 29.0485 56.9178
C 41.929 29.7017 59.4487
C 40.8653 27.7974 55.8037
C 39.7338 28.991 60.3879
C 38.6556 27.2557 57.2666
C 38.2821 27.6153 58.5415
C 41.6146 29.2819 58.1257
C 39.8497 27.9989 56.8457
C 39.305 28.5434 59.1146
C 40.2573 28.7303 58.0125
C 43.822 29.5196 57.1671
C 43.8948 30.6782 58.2196
C 43.3618 30.1901 59.6095
C 40.3324 26.8282 54.7887
C 38.7881 26.5856 54.8445
C 38.2296 26.1771 56.2637
H 40.9097 23.9481 49.8083
H 39.1762 22.074 53.5052
H 42.6696 27.3305 53.4818
H 43.8109 25.9389 53.6889
H 43.732 26.8041 52.0805
H 42.174 25.768 55.2332
H 40.7336 24.7831 55.6269
H 41.3561 29.832 61.5275
H 39.079 28.8073 61.2919
H 37.3452 27.2841 59.0466
H 44.4787 28.6589 57.5411
H 44.3128 29.8213 56.2055
H 43.1993 31.495 57.9175
H 44.9045 31.1431 58.3728
H 43.3921 31.0743 60.2897
H 44.0769 29.426 59.96
H 40.5233 27.2483 53.7635
H 38.1989 27.432 54.4426
H 38.7081 25.7966 54.0738
H 38.6171 25.1933 56.6174
H 37.1379 26.0744 56.3071
C 69.7018 5.60254 0.772537
C 69.1589 6.74504 1.46376
C 69.3893 3.41264 4.94203
C 69.7755 4.27485 1.37626
C 68.6109 6.57304 2.77622
C 69.5303 3.05116 3.67431
C 69.0573 4.89078 5.00772
C 69.2934 4.1881 2.73654
C 68.9418 5.36819 3.47206
C 0.36174 5.78794 69.5244
C 0.651083 7.08998 68.9737
C 0.459763 8.23152 69.8532
C 69.7013 8.05481 1.07834
C 1.03787 4.65002 68.8313
C 1.75751 4.8884 67.5929
C 1.91598 6.17813 67.1127
C 1.63619 7.33416 67.8972
C 1.26535 3.42966 69.5147
C 0.700869 3.31923 0.798457
C 1.2519 9.4215 69.5209
C 1.16486 10.4859 0.478227
C 0.458406 10.3015 1.63509
C 69.7015 9.15711 1.97894
N 2.31344 8.40868 67.7306
C 2.20742 9.42775 68.5042
C 68.1466 7.86305 3.34809
C 69.2253 8.90772 3.40723
C 1.57083 2.4068 1.58662
O 2.6151 2.03177 1.08333
C 67.0066 8.37008 2.46118
C 0.470844 8.35546 4.14467
H 69.5074 2.77971 5.80306
H 69.8001 2.01344 3.39788
H 69.852 5.4514 5.50776
H 68.1251 4.87721 5.62674
H 2.20922 4.02979 67.1566
H 2.35023 6.25306 66.1287
H 2.0115 2.7033 69.1464
H 1.83842 11.3695 0.426772
H 0.63808 10.9813 2.45769
H 2.91695 10.2702 68.3363
H 67.6704 7.76579 4.35861
H 68.8469 9.81382 3.83936
H 1.46504 2.26244 2.6827
H 66.403 9.10029 3.06469
H 67.3415 8.85661 1.49251
H 66.3203 7.55133 2.3187
H 0.250556 7.39682 4.72281
H 1.27717 8.16079 3.3851
H 0.826209 9.18789 4.81471
C 1.51375 10.4236 7.73683
C 2.55084 11.3651 7.45332
C 3.60331 15.0248 69.2103
C 0.439728 10.2317 6.83741
C 2.2194 15.0427 68.7816
C 4.09629 14.6017 0.453202
C 2.60814 12.0032 6.22481
C 69.79 14.5258 69.5433
C 69.0716 13.7012 0.422831
N 69.171 11.4294 4.96999
C 68.9387 12.5331 2.69938
C 3.31694 13.4566 2.77929
C 1.20232 14.7606 69.7663
C 0.299914 11.1076 5.75051
C 3.16138 14.24 1.44508
C 69.5735 13.3192 1.71959
C 69.6043 12.1662 3.86857
C 1.46038 11.8574 5.38807
C 1.83481 13.1522 3.11214
C 1.78429 14.3022 1.05011
C 1.03334 12.439 4.05679
C 1.02706 13.6088 2.02836
C 1.58826 15.2931 67.4392
C 0.113708 14.7584 67.151
C 69.2282 15.2846 68.3476
C 67.6824 13.1349 0.21208
C 67.7137 11.6688 0.780749
C 67.5837 11.9037 2.3247
O 5.43913 14.4131 0.601603
C 3.86575 14.2342 4.05332
C 5.30712 14.1233 4.42054
C 2.39009 14.2924 66.5086
C 69.6924 8.89073 7.10382
H 1.47741 9.90101 8.63233
H 3.32445 11.591 8.2338
H 4.33453 15.1518 68.3968
H 3.42539 12.6641 6.02412
H 68.1661 11.1231 5.18034
H 3.87571 12.4889 2.57302
H 1.65823 16.4244 67.2253
H 0.0898727 13.6466 67.158
H 69.6913 15.1164 66.2012
H 68.1903 14.96 68.2719
H 69.2886 16.3831 68.4836
H 67.4854 13.1246 69.1286
H 66.9125 13.7268 0.79491
H 68.6351 11.114 0.511739
H 66.9267 11.0282 0.364804
H 66.771 12.5051 2.54642
H 67.4513 10.9103 2.9486
H 5.43293 13.8972 1.46893
H 3.64604 15.3092 3.99351
H 3.2529 13.9353 4.91696
H 5.5233 13.1591 4.94452
H 5.99051 14.2008 3.51539
H 5.5986 14.9491 5.15402
H 2.46066 14.6477 65.4637
H 3.39069 14.0423 66.9013
H 1.9059 13.2947 66.3276
H 69.5071 8.66276 8.21669
H 0.338191 8.00001 6.92878
H 68.7591 8.89148 6.56289
C 3.11256 8.79506 63.2814
C 9.53717 11.6086 65.5927
C 2.40956 9.41511 64.4333
C 8.76977 12.834 65.8996
C 4.44759 9.12448 62.9683
C 8.84999 10.4567 65.0249
C 2.41446 11.0507 66.2792
C 6.77656 13.3921 67.4035
C 3.18393 11.8525 67.2087
C 5.31503 13.007 67.7076
C 6.61394 10.0803 63.6462
C 3.1518 10.2682 65.2896
C 7.34302 12.683 66.1355
C 4.59066 12.1558 66.9532
C 5.1924 9.93353 63.835
C 7.46396 10.682 64.6473
C 4.55763 10.5012 65.0413
C 6.7112 11.6163 65.5286
C 5.29333 11.467 65.7956
C 2.34142 7.85 62.5537
C 0.985297 7.58105 62.8679
C 0.29176 8.32094 63.8263
C 0.987305 9.31882 64.6051
C 0.259556 10.2191 65.5022
C 0.986372 11.0431 66.2772
C 10.9207 11.708 66.0197
C 11.4858 12.891 66.4472
C 10.718 14.057 66.5409
C 9.39833 14.0622 66.2102
C 2.47388 12.3494 68.3876
O 3.12967 12.5378 69.3976
O 11.7628 10.6634 66.1702
C 7.20084 9.74197 62.284
H 4.84566 8.80381 62.0161
H 9.29001 9.45891 64.8541
H 7.43518 12.9194 68.1996
H 6.93859 14.4581 67.3445
H 4.97169 13.3973 68.6635
H 2.9097 7.22497 61.836
H 0.459179 6.79949 62.2473
H 69.2487 8.18083 64.0761
H 69.1582 10.2842 65.4754
H 0.39523 11.7601 66.8741
H 12.5311 13.0199 66.7659
H 11.2237 14.9774 66.7977
H 8.71121 14.938 66.3756
H 1.34026 12.3834 68.4011
H 12.6167 10.9571 66.6222
H 7.45431 8.66471 62.3028
H 8.11914 10.3208 62.0506
H 6.44855 9.95992 61.5413
C 66.7026 2.83042 66.6113
C 65.5642 2.94677 67.4219
C 64.4408 3.63108 66.9379
C 64.5693 4.32498 65.7123
C 65.7861 4.37469 65.0058
C 66.8673 3.63051 65.4561
O 63.5051 4.97519 65.1657
C 67.6961 1.67606 66.7853
C 64.4299 1.16336 65.7267
C 60.2985 3.26134 61.0225
C 63.0188 1.26003 66.1923
C 59.6639 3.35349 62.2425
C 64.8723 1.61543 64.4398
C 61.723 3.20061 60.9278
C 62.0722 2.14564 65.526
C 60.3945 3.24835 63.5014
C 64.0167 2.92756 62.2849
C 63.9428 2.38942 63.7748
C 62.5522 3.22792 62.0715
C 62.7011 2.74805 64.3977
C 61.8221 3.29251 63.3363
C 60.6398 2.05681 65.6222
C 59.8055 2.6625 64.6669
C 65.4293 0.511145 66.5552
C 64.9891 69.8786 67.739
C 63.5657 69.7297 67.9927
C 62.5957 0.427035 67.3151
C 62.3534 3.00336 59.581
O 61.6964 2.62532 58.6297
C 64.813 4.20129 62.0639
C 58.155 3.60745 62.3323
C 66.8805 0.462266 66.1222
H 65.4746 2.40812 68.3718
H 63.5283 3.69657 67.5531
H 65.8137 4.96488 64.07
H 67.7836 3.6542 64.8358
H 62.7952 4.68843 65.7571
H 67.8804 1.48007 67.8523
H 68.6134 1.91018 66.2551
H 59.6836 3.30455 60.1053
H 65.7709 1.31681 63.9728
H 64.4135 2.07461 61.6172
H 60.195 1.34558 66.2981
H 58.7952 2.24923 64.6426
H 65.6181 69.4004 68.5407
H 63.1443 68.9565 68.6621
H 61.5708 0.332659 67.6016
H 63.4248 3.18758 59.4564
H 64.6974 4.47614 61.0056
H 64.352 5.06258 62.6623
H 65.8345 3.96647 62.321
H 57.9101 4.51319 61.7523
H 57.8535 3.69954 63.4086
H 57.5629 2.77223 61.9062
H 66.9289 0.401802 65.0054
H 67.3289 69.5737 66.4413
C 29.0605 3.77446 66.5732
C 27.6655 3.66022 67.2762
N 28.0346 8.03898 64.6898
C 26.8552 8.0146 65.3768
C 29.442 4.82379 65.7346
C 26.7601 4.65555 67.1023
C 28.7911 7.01918 64.7884
C 26.3527 6.89141 66.0667
C 28.5127 5.86502 65.5862
C 27.1731 5.77486 66.2396
C 29.9983 2.81269 67.0148
C 29.6124 1.90312 67.9887
C 28.3245 1.8274 68.5748
C 27.3053 2.68748 68.2123
C 30.9114 4.998 65.2693
C 31.7097 3.68873 65.3607
C 31.5121 3.07705 66.6886
C 25.9128 9.138 65.5211
O 24.9499 9.01696 66.2384
C 26.0879 10.3006 64.6815
C 31.2359 2.68177 64.3461
C 28.2491 0.914976 69.8249
C 25.6187 4.80822 68.1309
C 28.0769 10.4396 67.0073
C 28.2296 11.1838 65.8073
C 29.2773 12.1309 65.6788
C 30.043 12.4917 66.8039
C 29.8644 11.7428 68.0213
C 28.8798 10.7506 68.046
O 27.4381 11.052 64.7933
C 29.4944 12.8498 64.3316
C 31.0751 13.6624 66.8144
H 29.7165 7.06213 64.1978
H 25.2986 6.9129 66.4617
H 30.3083 1.24912 68.4821
H 26.341 2.72192 68.7274
H 31.362 5.83243 65.8322
H 31.0215 5.38394 64.2269
H 32.7692 3.95024 65.2011
H 32.1094 2.18197 66.7313
H 31.8247 3.8562 67.4528
H 25.976 9.97204 63.6173
H 25.2783 10.9894 64.9473
H 31.8624 1.76257 64.3823
H 30.1794 2.33947 64.5531
H 31.3029 3.07454 63.2994
H 29.2169 0.762865 0.422658
H 28.1191 69.8273 69.5176
H 27.4125 1.2448 0.525957
H 25.0528 3.91806 68.3164
H 26.0334 4.99635 69.1386
H 24.9712 5.65314 67.9075
H 27.3296 9.67822 67.159
H 30.4322 11.9313 68.9534
H 28.7896 10.195 69.0038
H 28.5642 13.2949 64.0031
H 30.3465 13.6128 64.3855
H 29.6631 12.0989 63.5119
H 31.9459 13.3404 66.213
H 30.6269 14.5686 66.3601
H 31.4286 13.9572 67.8029
C 3.90635 52.6983 3.6897
C 3.02211 52.2834 4.81258
C 69.632 57.3828 9.71699
C 3.97911 54.0611 3.29503
S 1.05988 58.3738 9.25941
C 69.3968 56.2884 8.8831
C 1.90579 53.1293 5.24417
C 2.38596 57.423 6.93412
C 3.10501 56.445 4.44454
C 0.537154 55.1531 6.89784
C 1.29698 57.377 7.77919
C 0.354929 56.3273 7.75481
C 3.15662 54.9499 4.07441
C 2.30353 56.6696 5.73722
C 2.06236 54.5044 4.93558
C 1.43121 55.5126 5.78504
C 0.999736 52.7886 6.38762
C 0.204892 53.7731 7.01902
C 5.0494 51.8734 3.38981
C 5.51777 51.0685 4.44678
C 4.88541 51.0603 5.73344
C 3.61602 51.6311 5.93232
C 2.87489 51.6833 7.28478
C 1.26416 51.4461 6.91889
C 4.98878 54.7186 2.36195
O 4.56843 55.1702 1.3317
O 3.51284 58.1336 7.25312
C 2.20283 56.8315 3.32785
C 68.2286 55.294 9.06197
C 0.125628 51.1333 7.9802
C 4.51619 56.891 4.60353
C 5.96096 51.955 2.15575
H 69.0237 57.6497 10.5925
H 69.5229 53.531 7.83456
H 6.37269 50.4822 4.19513
H 5.30501 50.452 6.55532
H 3.31525 50.9439 7.9189
H 3.11133 52.5671 7.77337
H 1.20175 50.7417 6.1104
H 6.10011 54.7596 2.57036
H 3.23198 58.6035 8.05185
H 1.56755 55.9783 3.03937
H 1.36914 57.5671 3.61692
H 2.74223 56.9055 2.38657
H 67.9315 55.093 8.03185
H 67.3728 55.6574 9.67946
H 68.6234 54.4202 9.65909
H 69.0969 51.1981 7.55695
H 0.299385 50.1431 8.39309
H 0.114403 51.7743 8.84266
H 4.45712 57.8504 5.1162
H 5.04351 56.1805 5.31691
H 5.08664 56.7644 3.57001
H 5.75938 51.0212 1.55666
H 7.05283 52.0233 2.43493
H 5.66344 52.8379 1.5637
C 52.6959 40.6639 22.1494
C 54.0551 41.3506 22.1987
C 50.8063 44.0886 25.0551
C 52.0786 44.638 25.2259
C 51.5948 41.1575 22.8761
C 54.1716 42.4697 23.051
C 50.6378 42.9894 24.2081
C 53.1975 44.1633 24.6194
C 51.7652 42.3624 23.5569
C 53.095 43.0381 23.7429
C 52.5496 39.4664 21.4155
C 53.677 38.853 20.7782
C 54.8728 39.546 20.8068
C 55.0654 40.7781 21.4277
N 50.4414 40.3148 23.046
C 50.1419 39.696 21.7742
C 51.2409 38.6867 21.2735
C 55.5709 42.9456 23.5365
O 55.9217 44.0615 23.2933
C 56.439 42.0343 24.374
O 56.2923 41.4073 21.2327
O 52.224 45.7228 26.0502
C 50.6899 39.4398 24.2187
C 48.7234 39.0107 21.7165
C 53.6335 37.5413 20.0042
C 50.8174 38.2921 28.4122
C 50.1177 39.2631 29.1059
C 49.2616 40.1307 28.4348
C 49.1415 40.0424 27.0503
C 49.737 38.9712 26.372
C 50.6726 38.1175 27.025
C 49.5405 38.6327 24.8305
C 48.3728 41.1396 26.2857
H 49.8522 44.4906 25.5346
H 49.6438 42.6221 24.0374
H 54.1843 44.7383 24.8532
H 55.6416 39.1092 20.1525
H 50.0734 40.4721 21.0069
H 51.075 38.4498 20.2302
H 51.2309 37.7959 21.9305
H 56.5175 41.0094 23.9013
H 55.8674 41.7474 25.3092
H 57.4232 42.4622 24.6369
H 56.3526 42.3091 21.6019
H 51.343 45.9448 26.3505
H 51.61 38.8154 24.0273
H 51.2384 40.0386 25.0486
H 47.9401 39.6941 22.105
H 48.5502 38.7127 20.6694
H 48.6509 38.1133 22.3829
H 54.6758 37.2409 19.8319
H 53.0771 37.6649 19.0541
H 53.1004 36.7391 20.5715
H 51.5469 37.6368 28.9033
H 50.2389 39.3422 30.2084
H 48.7919 40.9671 28.9799
H 51.0994 37.2922 26.4624
H 48.5506 39.0295 24.496
H 49.6664 37.5447 24.6332
H 48.8656 42.1454 26.3411
H 47.3969 41.3834 26.7716
H 48.226 40.9126 25.1801
C 24.3853 56.9926 4.29272
C 24.7909 57.9648 3.23878
C 28.8882 55.9426 4.35473
C 25.2573 55.9106 4.76194
C 26.2298 57.9068 2.9135
C 27.8405 55.2655 4.90254
N 28.5455 57.0964 3.61806
C 26.6407 56.076 4.49287
C 27.1327 57.1514 3.66827
C 23.0461 57.0726 4.70893
C 22.1996 58.108 4.34523
C 22.6785 59.1272 3.54346
C 23.9683 59.073 2.87284
C 24.6367 54.6558 5.40149
C 23.4206 54.9832 6.32001
C 22.5095 55.8613 5.56768
C 26.7407 58.7517 1.77714
C 25.4771 59.4172 1.01533
C 24.6252 60.1122 2.01642
C 30.2401 55.3284 4.59118
C 30.2678 54.607 6.09157
C 29.3292 53.5317 6.14109
C 27.9624 53.9705 5.74622
C 21.6966 60.2528 3.47328
O 20.6946 60.4013 4.11073
O 20.9129 58.1372 4.78059
C 23.6557 60.9535 1.26901
C 23.4061 62.4334 1.75013
C 29.257 53.0457 7.56384
C 27.2463 57.6447 0.759354
C 29.8238 52.3566 5.3049
C 25.5215 61.0048 2.82351
H 29.2301 57.5855 2.94604
H 24.3226 53.9783 4.53152
H 25.44 54.0681 5.89162
H 22.9015 54.0429 6.54676
H 23.7461 55.3987 7.28231
H 21.7944 56.2964 6.29938
H 21.8675 55.2926 4.92681
H 27.5749 59.4073 2.09497
H 24.9162 58.6264 0.486118
H 25.8618 60.0473 0.235982
H 31.0559 56.0897 4.54041
H 30.4495 54.5209 3.89569
H 30.0766 55.3699 6.86033
H 31.2703 54.2262 6.2596
H 27.4139 54.125 6.69028
H 27.3959 53.1245 5.28361
H 21.8637 61.0805 2.72594
H 20.7702 57.3753 5.30552
H 22.7332 60.4129 1.3972
H 23.7853 60.9119 0.193884
H 22.9975 62.5243 2.77765
H 24.3127 63.0814 1.61757
H 22.5543 62.8603 1.19571
H 28.6927 52.1088 7.61276
H 28.8421 53.8117 8.26828
H 30.2971 52.8664 7.92278
H 28.1241 57.153 1.20321
H 26.5023 56.8602 0.535381
H 27.5468 58.1837 69.8729
H 29.0528 51.5751 5.19674
H 30.7254 51.9521 5.83877
H 30.1483 52.6622 4.28938
H 26.0066 61.7154 2.11671
H 24.9227 61.4998 3.6104
H 26.321 60.4242 3.36526
N 13.0635 32.6688 29.208
C 13.1853 31.4718 28.8031
C 12.2687 30.4781 29.0835
C 11.112 30.8175 29.7743
C 10.937 32.1504 30.2447
C 12.0427 32.9887 29.948
C 11.7305 34.2745 30.6302
O 10.879 35.0791 30.3684
C 12.7143 34.6254 31.7777
O 14.2112 31.1078 28.0192
C 13.2262 36.0902 31.7294
C 21.4074 32.481 29.2613
C 20.93 33.7351 29.6887
C 16.7 31.3124 28.6106
C 16.3015 32.501 29.307
C 20.4955 31.4891 28.9454
C 19.5738 34.0356 29.927
C 18.0858 30.9198 28.4796
C 17.229 33.3242 29.8809
C 19.0674 31.7916 29.0192
C 18.6579 33.0596 29.6876
C 20.9871 30.1749 28.3337
C 19.9101 29.023 28.4575
C 18.5562 29.5686 27.8939
C 20.5309 27.9358 27.5556
C 21.8562 34.9823 29.7157
C 16.7189 34.553 30.671
C 15.5924 30.4719 28.047
C 18.7464 24.0693 28.4211
C 17.9466 25.022 27.7643
C 18.5097 26.2741 27.4063
C 19.8256 26.5678 27.7967
C 20.6592 25.6013 28.4182
C 20.084 24.3702 28.7199
C 20.9866 23.3285 29.3504
O 20.5398 22.2299 29.6201
H 12.4771 29.4239 28.8258
H 10.3316 30.0591 29.9957
H 10.0032 32.3114 30.8536
H 12.1958 34.4266 32.7654
H 13.5974 33.9627 31.7671
H 13.9983 36.2333 32.5226
H 12.3761 36.7748 31.8906
H 13.7044 36.3158 30.7662
H 22.4573 32.3282 29.1051
H 15.2621 32.6674 29.4406
H 19.2911 35.0859 30.2536
H 21.9441 29.8543 28.8549
H 21.1912 30.3626 27.281
H 19.7834 28.6789 29.4998
H 17.7597 28.8008 28.029
H 18.6675 29.7241 26.8058
H 21.6103 27.8364 27.7375
H 20.4333 28.2606 26.5018
H 22.9299 34.6537 29.7593
H 21.6253 35.6658 30.5629
H 21.7123 35.5015 28.7259
H 15.6878 34.3498 30.9833
H 16.6638 35.4253 30.0042
H 17.3644 34.7817 31.555
H 15.797 30.1389 26.9541
H 15.3812 29.5087 28.554
H 18.3148 23.1111 28.7553
H 16.9006 24.7282 27.5518
H 17.8812 27.0326 26.9476
H 21.726 25.884 28.6418
H 22.0721 23.4831 29.4988
C 33.4293 25.1851 52.9035
C 26.8615 22.0679 55.0588
C 31.9726 25.1035 52.6145
C 27.2441 23.4654 54.6499
C 33.9827 24.2745 53.8287
C 27.6844 21.2397 55.8652
C 31.1335 24.1946 53.296
C 28.5872 23.8131 54.8456
C 33.7038 22.6011 55.6655
C 32.8468 21.7685 56.4981
C 30.2751 20.9215 56.6949
C 33.1449 23.4955 54.6818
C 28.996 21.6263 56.0909
C 31.4391 21.7871 56.1723
C 31.7123 23.5422 54.3598
C 29.4045 22.7766 55.3538
C 30.883 22.6815 55.2488
C 34.2569 26.2262 52.2998
C 33.5699 27.2338 51.5637
C 32.2243 27.1066 51.2471
C 31.4381 26.0049 51.6502
C 25.6097 21.5978 54.5785
C 24.7112 22.469 53.9367
C 25.0953 23.818 53.5967
C 26.2672 24.363 54.0484
C 35.1338 22.7518 55.9022
C 35.6457 22.0946 57.1017