38812
Lattice='71.3 0.0 0.0 0.0 71.3 0.0 0.0 0.0 71.3' Properties=species:S:1:pos:R:3 Timestep:=T pbc=F F F 1229=T Atoms.=T
C 4.50648 44.5167 47.4083
O 3.44155 44.8291 46.9334
C 5.77731 45.3206 47.6865
C 6.04268 46.6672 47.3397
C 7.32017 47.1756 47.5836
C 8.39802 46.3498 47.9367
C 9.85568 46.7877 47.9313
C 8.06284 45.0339 48.3898
C 9.18476 44.2004 49.0014
O 8.91357 43.0651 49.3081
C 6.76975 44.5339 48.2787
H 4.65931 43.4258 47.5551
H 5.24977 47.295 46.9591
H 7.49756 48.1997 47.4007
H 10.6099 46.0571 47.5109
H 10.1956 47.0508 48.964
H 9.9688 47.6943 47.3712
H 10.2161 44.5906 49.228
H 6.49004 43.5137 48.653
C 47.7986 62.3922 57.4423
O 47.0184 62.0932 58.3067
C 47.4606 63.3766 56.3025
C 48.4179 64.3738 55.9473
C 47.949 65.2153 54.9356
C 46.7148 65.0566 54.2798
C 45.8422 63.984 54.5999
S 44.2837 63.8879 53.6426
C 43.0257 63.8882 54.9452
C 46.268 63.0913 55.5741
C 45.2879 61.9082 55.9132
O 44.942 61.171 55.0346
H 48.8656 62.0053 57.5806
H 49.4192 64.5369 56.4991
H 48.588 66.101 54.7633
H 46.3935 65.7167 53.4716
H 42.3751 63.0072 54.6678
H 43.4792 63.7648 55.9461
H 42.3349 64.7547 54.833
H 44.8664 61.711 56.9032
O 46.0552 51.891 68.0231
C 46.8619 52.4628 67.0475
C 46.1123 53.6124 66.3442
C 47.3443 51.3479 66.0071
C 47.8195 52.1746 64.751
C 46.8664 52.3989 63.7371
C 47.236 53.2509 62.691
S 45.8856 53.8472 61.6567
C 44.9665 52.3543 61.25
C 48.5185 53.8318 62.6087
C 49.4951 53.4914 63.5705
C 49.0774 52.7542 64.6986
C 49.9611 52.6816 65.9699
C 49.6289 51.4829 66.9725
C 48.5752 50.5859 66.4894
C 49.2322 49.5357 65.5999
H 45.4668 51.2204 67.7084
H 47.7235 52.8787 67.5646
H 46.7902 54.2048 65.8427
H 45.6145 54.2297 67.1329
H 45.3006 53.2345 65.689
H 46.5543 50.6899 65.596
H 45.8904 51.9901 63.7915
H 43.924 52.6799 61.4609
H 45.3909 51.4787 61.7822
H 45.0939 52.2425 60.0584
H 48.719 54.543 61.7777
H 50.512 53.8374 63.4395
H 49.9466 53.667 66.5659
H 51.0233 52.6058 65.6318
H 49.2723 51.9062 68.0354
H 50.5747 50.9725 67.2911
H 48.2223 50.0592 67.4677
H 48.613 48.565 65.5443
H 50.2747 49.2484 66.0374
H 49.3864 49.8742 64.5844
C 50.7449 29.5551 58.1628
C 50.5236 28.2218 58.5302
C 51.0244 27.1725 57.7934
C 51.9451 27.5149 56.7597
C 52.1444 28.8423 56.3654
C 51.4367 29.8975 57.0241
O 50.5819 25.9145 57.8864
C 49.8077 25.3183 58.8964
C 48.6995 24.7709 58.4137
C 47.8097 23.9376 59.1714
O 46.6504 23.5742 58.7589
C 45.9538 23.8142 57.3987
C 48.2073 23.6479 60.5117
C 47.2935 22.6609 61.255
O 47.4454 22.426 62.4247
C 49.3326 24.3271 61.0433
C 49.9354 24.1823 62.4691
C 50.1261 25.146 60.2463
H 50.2768 30.3993 58.6859
H 49.8879 27.9658 59.3952
H 52.4593 26.6664 56.233
H 52.8969 29.084 55.5922
H 51.5534 31.003 56.7123
H 48.4988 24.9293 57.3449
H 45.8253 22.7698 56.9494
H 45.007 24.2797 57.6449
H 46.663 24.4498 56.7881
H 46.495 22.1156 60.7148
H 49.8697 23.2013 62.8843
H 51.0429 24.4245 62.4497
H 49.3508 24.8464 63.1714
H 51.0013 25.6489 60.6806
C 18.9171 35.9137 16.0242
N 17.7552 36.4605 15.7401
C 16.8655 35.7143 15.1603
C 17.144 34.3684 14.8015
C 16.0737 33.4714 14.3876
C 16.413 32.2238 13.8392
C 17.7299 31.7312 13.8701
C 18.7592 32.454 14.5273
O 19.948 32.0231 14.7271
C 20.4248 30.6822 14.0978
C 18.475 33.784 15.0136
C 19.393 34.6573 15.6929
C 14.6393 33.8028 14.6451
C 13.6039 32.6895 14.9494
C 14.4041 35.1457 14.7028
C 12.9841 35.718 14.7751
C 15.5 36.2017 14.6417
C 15.5839 36.5072 13.0927
H 19.6536 36.6138 16.5027
H 15.6265 31.6221 13.3126
H 17.8869 30.7196 13.484
H 21.4779 30.4712 14.5042
H 20.5522 30.8874 12.9965
H 19.8079 29.8438 14.4147
H 20.4307 34.3899 15.8848
H 12.7372 32.7323 14.2218
H 13.2479 32.6471 16.0116
H 14.0856 31.7242 14.6599
H 13.0067 36.8656 15.0063
H 12.3172 35.2797 15.6242
H 12.483 35.4284 13.7976
H 15.2357 37.1525 15.1726
H 15.9577 35.5489 12.5795
H 16.32 37.3183 12.9212
H 14.5378 36.7218 12.7011
C 32.8185 52.1697 23.5298
C 32.7846 52.9927 22.409
C 33.1076 52.5243 21.1685
C 33.7016 51.2443 21.1057
O 34.2739 50.7948 20.054
C 34.3021 51.7485 18.7588
C 33.9156 50.454 22.2578
C 33.4226 50.9178 23.4448
C 35.741 47.2587 19.9059
C 35.7417 46.0695 19.194
C 36.2229 46.0632 17.8424
C 36.1738 44.7079 17.1164
C 36.7545 47.2159 17.2722
C 36.7379 48.4529 18.0221
C 36.2703 48.428 19.3446
C 37.2474 49.7549 17.431
C 36.5017 51.1523 17.9238
C 35.0897 51.1307 17.7087
C 37.4674 49.6104 15.8714
C 38.3121 48.3276 15.7327
C 39.0819 48.3098 14.4373
C 37.4898 47.1217 15.8706
H 32.5595 52.5373 24.5318
H 32.271 53.992 22.5048
H 32.8977 53.0915 20.2685
H 34.7148 52.7188 19.1479
H 33.2624 51.9466 18.466
H 34.4247 49.4476 22.2197
H 33.6136 50.3635 24.3616
H 35.4587 47.3528 20.9636
H 35.4215 45.1437 19.6429
H 35.6878 44.0171 17.8339
H 37.2178 44.3315 16.9558
H 35.7361 44.735 16.1141
H 36.3572 49.3194 19.9457
H 38.2418 49.9911 17.8593
H 36.6979 51.3499 19.0219
H 36.9591 52.0366 17.4879
H 34.7419 50.049 17.6484
H 34.8337 51.6073 16.7364
H 36.5223 49.5001 15.3375
H 37.8969 50.5447 15.4126
H 39.1512 48.3263 16.5022
H 39.7553 47.4422 14.4312
H 39.7031 49.2365 14.3483
H 38.43 48.1742 13.5259
H 36.7454 47.0516 15.0934
H 38.0364 46.148 15.8525
C 63.3131 16.9659 63.6869
C 62.846 16.6773 64.9975
C 63.7461 16.0396 65.9026
C 65.1201 15.8744 65.664
C 65.5933 16.225 64.3908
C 64.6355 16.6678 63.4358
C 65.0133 25.3821 61.3247
C 64.6493 24.6696 60.1788
C 64.7388 23.2413 60.1919
C 64.5409 22.4129 59.0315
C 64.6416 21.0708 59.1349
C 64.9394 20.3678 60.3345
C 65.0604 18.9672 60.5293
C 65.3367 18.4463 61.8016
C 65.0585 16.9175 61.9671
C 65.6631 19.1955 62.9604
C 65.5988 20.6124 62.839
C 65.9594 21.5442 63.9272
N 65.8627 22.8108 63.7934
C 65.5083 23.3426 62.6356
C 65.4604 24.7439 62.4726
C 65.1364 22.6026 61.4543
C 65.2608 21.156 61.5274
H 62.724 17.3912 62.8946
H 61.8043 16.8222 65.2557
H 63.4505 15.7817 66.9564
H 65.8208 15.4418 66.3915
H 66.6663 16.1884 64.0817
H 65.0558 26.5029 61.3283
H 64.3751 25.294 59.274
H 64.307 22.9147 58.0905
H 64.5971 20.4942 58.1908
H 64.7811 18.2514 59.6922
H 66.0229 16.2929 61.8438
H 64.3478 16.5432 61.236
H 65.8251 18.7462 63.9432
H 66.2496 21.1481 64.9312
H 65.7737 25.3645 63.3675
C 21.3306 62.5688 65.0089
C 21.3565 62.3496 63.6162
C 22.5039 61.709 63.0983
C 22.5136 61.5234 61.6759
C 23.6072 60.9791 61.0619
C 24.7859 60.5539 61.8452
C 25.9431 60.0396 61.2628
C 26.9937 59.5759 62.0703
C 26.8842 59.6437 63.4848
C 28.1371 59.1855 64.2297
C 25.7302 60.0949 64.1654
C 25.5948 60.1603 65.6409
C 24.5313 60.8259 66.2248
C 23.4782 61.4303 65.377
C 22.3678 62.127 65.8605
C 23.5966 61.2105 63.9438
C 24.6562 60.5881 63.2995
C 28.5471 55.8761 62.3365
C 28.7306 57.1943 62.7637
C 28.0885 57.63 63.9375
C 27.2088 56.8617 64.7129
C 27.1041 55.5427 64.2928
C 27.7285 55.0416 63.1306
H 20.4642 63.1009 65.392
H 20.504 62.6318 63.0065
H 21.6927 62.0217 61.087
H 23.5746 60.8784 59.9535
H 26.0501 60.1664 60.1819
H 27.9114 59.2761 61.6443
H 28.9961 59.634 63.7059
H 28.0573 59.3759 65.2806
H 26.3851 59.6979 66.2569
H 24.384 60.9216 67.2939
H 22.2818 62.3013 66.9533
H 29.0475 55.5088 61.4086
H 29.3367 57.8296 62.1037
H 26.6017 57.2791 65.5346
H 26.3485 54.8812 64.8513
H 27.569 53.9928 62.8786
O 1.91292 54.616 64.8216
C 3.05853 54.1819 64.0387
C 4.11285 53.5075 64.9154
C 3.61514 52.2446 65.6406
C 5.38239 53.9399 65.1829
C 6.41439 53.2088 66.0645
C 5.90135 55.1543 64.5776
C 7.0905 55.9121 64.4749
C 6.96975 57.0361 63.6291
C 7.72585 58.2062 63.1079
O 8.81918 58.4099 63.7234
C 9.63908 59.7424 63.5768
C 7.06071 59.0837 62.2297
C 5.7879 58.8058 61.6633
C 4.94794 57.6873 62.047
C 3.5967 57.2915 61.675
C 2.98439 56.2147 62.294
C 3.57941 55.4122 63.3216
C 4.90644 55.8362 63.6812
C 5.60927 56.9479 63.1239
H 1.22409 54.9745 64.2543
H 2.55394 53.4261 63.4321
H 4.21599 51.3056 65.5877
H 2.62633 52.0123 65.3143
H 3.58641 52.451 66.7541
H 6.10455 53.1925 67.1364
H 6.53054 52.1465 65.6711
H 7.40897 53.6785 66.0148
H 8.10656 55.6734 64.9852
H 8.83722 60.509 63.5983
H 10.2909 59.6952 62.7299
H 10.3468 59.7595 64.4483
H 7.58218 59.9915 61.8762
H 5.47117 59.4013 60.8339
H 2.99118 57.8444 60.9261
H 1.96119 56.0003 61.9556
C 4.75735 12.441 36.5003
O 5.13733 13.0373 37.4827
C 3.45526 12.7486 35.854
C 2.52258 13.5439 36.5323
C 1.25149 13.9267 36.0374
C 0.419671 14.8805 36.9097
C 0.813699 13.5852 34.7435
C 70.7883 13.8446 34.1893
C 69.7893 14.6374 34.8282
C 68.5966 15.012 34.0834
C 68.2924 14.4507 32.8172
C 66.9617 14.7095 32.0907
C 69.2145 13.5997 32.1411
C 69.0635 13.0202 30.8262
C 70.0921 12.2392 30.2582
C 71.2434 11.9573 30.9589
S 1.49165 11.0336 30.4724
C 2.34451 11.4166 31.9663
C 3.62588 11.0312 32.46
C 4.02586 11.5386 33.7262
C 3.10913 12.2994 34.5305
C 1.77979 12.6603 34.088
C 1.4529 12.1792 32.7733
C 0.154957 12.4996 32.2365
C 70.4946 13.3762 32.8642
H 5.42679 11.6116 36.0926
H 2.74413 13.8408 37.6013
H 70.8669 14.3779 37.5182
H 1.05577 15.293 37.7507
H 0.0586842 15.7301 36.3448
H 69.9019 15.0441 35.8539
H 67.8877 15.6566 34.5495
H 66.8995 14.1161 31.0988
H 66.8034 15.7388 31.732
H 66.1177 14.3404 32.6928
H 68.1594 13.1458 30.239
H 69.9071 11.7863 29.2709
H 4.31749 10.5086 31.8289
H 5.0022 11.358 34.1506
C 49.3928 66.8247 64.4307
C 50.4702 67.6934 64.237
C 51.0699 68.2237 65.4108
C 52.1566 69.1858 65.4024
C 52.6327 69.7527 66.5667
C 51.9462 69.4969 67.8068
C 52.0336 69.8294 69.2086
N 51.1469 69.1942 69.9518
C 50.3436 68.3605 69.1801
C 49.3341 67.3703 69.3777
C 48.8236 66.6426 68.2958
C 49.2841 66.9446 66.9616
C 48.774 66.4567 65.6938
C 47.3922 65.8103 65.7234
C 50.4208 67.8421 66.6933
C 50.8317 68.541 67.8267
C 46.6273 60.1078 66.3298
O 47.1327 59.6213 67.3195
C 46.8033 61.5763 66.1191
C 47.9838 62.0607 66.7452
C 48.2986 63.4148 66.5871
C 47.4144 64.245 65.8708
C 46.3356 63.5903 65.2376
N 46.0658 62.3411 65.3924
H 48.8596 66.4277 63.5607
H 50.7409 68.0427 63.1972
H 52.5189 69.488 64.4139
H 53.4914 70.4753 66.5471
H 52.7753 70.5207 69.6177
H 51.0273 69.2333 71.0
H 48.9122 67.1721 70.419
H 47.9883 65.9036 68.4772
H 46.8801 66.0213 64.7782
H 46.8308 66.2433 66.6195
H 45.8797 59.4732 65.8397
H 48.581 61.4419 67.4321
H 49.1388 63.8172 67.1625
H 45.6091 64.1689 64.5566
C 3.75307 64.5393 7.08341
O 2.68933 64.7465 7.62679
C 4.49045 65.6598 6.46427
C 4.12844 66.9638 6.89712
C 4.87879 68.1184 6.54261
C 6.00216 67.8859 5.76109
C 6.4099 66.5914 5.20328
C 7.41925 66.5635 4.17488
C 7.55195 65.3475 3.42952
C 6.75452 64.1986 3.76776
C 7.08409 62.9247 3.01505
C 5.91653 64.1992 4.90059
C 5.62655 65.4291 5.58041
C 8.03134 67.8118 3.69099
C 9.53087 67.6609 3.58654
C 7.75301 68.9813 4.57003
C 6.81522 69.0516 5.50089
C 6.23713 60.4465 68.4127
C 6.74805 59.5419 69.3446
C 6.86603 59.9184 70.6688
C 6.51709 61.1875 71.1594
O 6.78455 61.4889 1.07436
C 6.43805 62.8801 1.72315
C 5.9822 62.1106 70.2245
C 5.87832 61.7201 68.9004
H 4.05777 63.4471 6.94335
H 3.22393 67.122 7.49708
H 4.60445 69.1377 6.86001
H 8.27322 65.3489 2.54867
H 6.82036 61.9602 3.63242
H 8.15548 62.8884 2.90701
H 5.45861 63.2869 5.26788
H 7.6033 68.046 2.66189
H 9.90432 67.413 4.58904
H 10.0243 68.543 3.11503
H 9.84855 66.8386 2.84205
H 8.37543 69.8417 4.299
H 6.6234 70.0912 5.97782
H 6.10813 60.1809 67.3041
H 6.94713 58.4732 69.0433
H 7.28194 59.1548 0.0707783
H 6.76744 63.6619 0.994139
H 5.33613 62.908 1.82376
H 5.67893 63.1314 70.5228
H 5.44018 62.3885 68.0931
C 65.1525 47.6675 23.5903
C 65.728 48.3622 22.4568
C 67.0788 48.7003 22.4092
C 67.9448 48.2248 23.372
C 67.4125 47.4192 24.3699
C 66.0638 47.1213 24.4905
C 62.3321 47.7834 18.6045
C 63.2017 48.3247 19.6146
C 63.5411 49.6661 19.0241
C 64.3852 50.6211 19.6523
C 64.3586 51.9337 18.9701
C 63.6071 52.0961 17.8009
C 62.7805 51.1464 17.2549
C 62.7285 49.8225 17.8257
N 62.0527 48.6357 17.6171
C 63.8725 47.9582 20.8455
C 64.7836 48.8528 21.4091
C 64.9711 50.2395 20.9169
C 65.0869 52.8826 19.7343
C 65.7158 52.5363 20.9431
C 65.728 51.2516 21.5269
C 60.6974 51.4335 15.8423
N 60.07 51.4687 14.7224
C 60.8014 51.6643 13.6698
C 62.1612 51.9509 13.5964
C 62.8383 51.7982 14.7976
C 62.1163 51.4893 15.9422
H 64.0779 47.5352 23.6788
H 67.4926 49.185 21.4955
H 68.9952 48.3946 23.3158
H 68.1001 46.9215 25.0694
H 65.7176 46.4315 25.2777
H 61.8882 46.7627 18.5725
H 63.6278 53.0564 17.2831
H 61.393 48.3448 16.8306
H 63.8078 46.9269 21.1569
H 65.1187 53.9329 19.3333
H 66.1608 53.3226 21.6002
H 66.1823 51.1563 22.5837
H 60.1147 51.3021 16.7305
H 60.2786 51.6871 12.686
H 62.6233 52.265 12.644
H 63.946 51.8727 14.8871
O 9.06212 68.6417 1.03282
C 9.74208 68.0 71.1744
C 8.68842 67.9394 70.1166
C 8.37789 66.7774 69.4835
C 7.46425 66.8112 68.2315
C 7.9043 67.6672 67.0408
C 8.83238 65.4721 70.0602
C 8.26098 64.19 69.7831
C 8.6582 62.9805 70.381
C 9.75559 62.9141 71.2627
C 10.2442 61.6865 0.567057
C 11.4275 61.699 1.22174
C 12.2575 62.8538 1.34998
C 13.6074 62.8774 1.79593
C 14.2683 64.1042 1.94049
C 13.6357 65.3239 1.75047
C 12.3645 65.4173 1.168
C 11.6035 66.6371 0.955086
C 11.99 67.7859 1.81145
O 12.5925 67.7347 2.86095
C 10.4254 66.6952 0.219204
C 9.95397 65.4401 70.9764
C 10.5308 64.172 0.110199
C 11.7144 64.1713 0.834293
H 8.54621 69.4299 0.737168
H 10.5458 68.758 70.9583
H 8.33892 68.8563 69.6107
H 7.23938 65.7872 67.9053
H 6.43057 67.1898 68.5171
H 7.78185 68.7797 67.1921
H 7.25561 67.3143 66.1461
H 8.96662 67.4555 66.7755
H 7.39207 64.1796 69.1098
H 8.17276 62.0407 70.0793
H 9.70653 60.7213 0.54622
H 11.8225 60.7358 1.64855
H 14.1689 61.9425 1.87195
H 15.2969 64.1666 2.19282
H 14.1105 66.3038 1.94393
H 11.6172 68.7963 1.49415
C 64.2773 11.1538 32.5128
O 64.3168 12.3542 32.5281
C 64.4235 10.4334 33.8552
C 65.6819 9.92531 34.1559
S 67.065 10.2529 33.0588
C 68.3871 9.15923 33.6314
C 65.8587 9.1088 35.3
O 67.0369 8.94052 35.821
C 67.2543 8.2864 37.18
C 64.7204 8.61995 36.0116
C 63.4727 9.12428 35.6914
C 62.3559 8.5908 36.6366
C 63.3283 10.2479 34.8127
O 62.4148 11.1063 35.0521
C 62.1476 12.4068 34.3043
C 70.4631 4.64538 32.6936
C 71.0084 5.65886 33.5294
C 70.5239 6.9458 33.4092
C 69.541 7.26376 32.4808
C 69.1473 8.74068 32.324
C 68.9111 6.26684 31.6793
O 67.9127 6.55921 30.9019
C 67.0211 5.41102 30.3659
C 69.4641 4.97597 31.7419
H 63.9832 10.679 31.5104
H 67.9562 8.28829 34.1051
H 68.9855 9.80841 34.3002
H 68.3195 8.49683 37.404
H 67.0653 7.21557 37.106
H 66.6951 8.82186 37.9597
H 64.8033 7.95528 36.8327
H 62.7064 7.59243 37.0047
H 62.3095 9.19405 37.5544
H 61.3035 8.54705 36.2738
H 61.8519 12.1547 33.2599
H 63.0466 13.1071 34.4301
H 61.2443 12.8718 34.8682
H 70.75 3.55974 32.7245
H 0.555181 5.51432 34.241
H 70.9523 7.70261 33.9997
H 69.9855 9.41951 32.088
H 68.4105 8.86293 31.4466
H 66.1829 5.79483 29.7328
H 66.6225 4.87052 31.2387
H 67.7222 4.85512 29.6706
H 68.9171 4.15636 31.224
O 10.9638 50.8083 63.4373
C 11.0301 50.8825 62.0809
C 11.5665 52.0576 61.4094
C 11.5578 52.1807 60.0512
C 11.2655 51.0332 59.2328
C 11.6212 51.1755 57.7984
C 10.6436 49.8882 59.7848
O 10.1587 49.0322 58.9766
C 9.21248 47.786 59.2836
C 10.5868 49.8961 61.2264
C 10.0355 48.6754 61.9804
O 11.8709 52.5905 57.3071
C 11.3919 53.1329 56.2446
C 10.3625 52.6496 55.3706
C 9.30198 51.6044 55.6885
O 8.44781 51.4103 54.8636
C 10.1083 53.1974 54.1472
C 10.7573 54.4217 53.7609
C 11.6629 55.015 54.641
C 12.0254 54.3563 55.8349
C 13.0664 54.9604 56.7974
S 12.6709 56.6628 57.3605
H 11.3836 51.5717 63.8143
H 11.8953 52.9422 61.9908
H 11.9312 53.1281 59.6921
H 10.9053 50.683 57.0292
H 12.6096 50.6428 57.6436
H 8.80099 47.4691 58.2445
H 8.34438 48.1349 59.8871
H 9.79789 46.9384 59.7824
H 8.91698 48.652 61.8205
H 10.4394 47.8146 61.3978
H 10.3956 48.7093 63.0056
H 9.14695 51.1785 56.6927
H 9.30893 52.8525 53.4226
H 10.4774 54.938 52.8273
H 12.1594 55.9424 54.3635
H 13.1195 54.3482 57.7622
H 14.0571 54.9517 56.2442
H 12.4492 57.228 56.1605
O 21.1515 4.57931 18.6066
C 22.3569 4.10696 17.6978
C 21.7625 4.00524 16.2726
C 23.4713 5.07499 17.6587
C 24.4849 4.73049 18.735
C 24.2506 4.92306 16.3753
C 24.7812 3.62955 16.009
C 25.326 3.4358 14.6992
C 25.5991 2.0267 14.2266
O 25.5832 1.13 15.0401
C 25.416 4.48829 13.7877
C 25.0734 5.77341 14.2319
C 25.5659 6.83315 13.2767
O 24.9739 7.88325 13.1621
C 24.4123 6.02961 15.4834
C 24.1688 7.43157 15.9166
C 22.8822 7.95859 15.3086
C 24.1465 7.47515 17.3681
C 22.9892 6.43837 17.8258
C 22.5723 6.92463 19.4461
C 21.3222 7.68049 19.4055
C 17.8604 10.1273 15.6842
C 19.0795 9.51285 15.7632
C 19.4708 8.78207 16.8451
C 18.5343 8.53773 17.8626
O 18.8264 7.76235 18.8418
C 20.125 6.9233 19.0619
C 17.2923 9.20191 17.8785
C 16.9781 9.97258 16.7789
H 20.41 3.97959 18.4375
H 22.6309 3.07762 18.1318
H 20.875 3.2737 16.3029
H 21.3178 4.93447 15.8311
H 22.4793 3.47084 15.5986
H 25.4586 5.18163 18.4676
H 24.5643 3.6373 18.8602
H 24.1343 5.22268 19.6911
H 24.5224 2.73938 16.6019
H 25.7787 1.74783 13.1708
H 25.9062 4.29452 12.8176
H 26.4298 6.63656 12.5309
H 25.0639 8.08934 15.5863
H 22.2792 8.60584 16.0477
H 23.1067 8.64376 14.4021
H 22.2273 7.10113 14.9946
H 25.1252 7.22019 17.7772
H 23.8862 8.49295 17.6995
H 22.0489 6.58292 17.1968
H 23.3298 7.57065 19.9248
H 22.4523 6.05215 20.0702
H 21.1864 8.22833 20.3525
H 21.442 8.55542 18.674
H 17.5615 10.6531 14.7393
H 19.7011 9.67028 14.8362
H 20.4674 8.31263 16.8158
H 19.9668 6.17949 19.8848
H 20.1803 6.33858 18.092
H 16.4999 9.07828 18.7033
H 15.9598 10.4439 16.7073
C 14.0368 9.99667 5.6705
C 13.2837 10.8497 6.52111
C 12.266 10.2711 7.33346
C 11.3267 10.8774 8.17797
C 10.4978 10.1723 9.03157
C 10.4393 8.76228 9.0573
N 9.78917 7.73683 9.7124
C 10.2399 6.56475 9.21332
C 9.88641 5.17183 9.74096
C 11.124 6.64146 8.07809
C 11.8413 5.79127 7.15223
C 12.73 6.46213 6.31084
C 13.498 5.53087 5.41747
C 13.0254 7.92441 6.3972
C 13.862 8.61607 5.52686
C 12.1801 8.77183 7.18652
C 11.3252 8.08694 8.08874
C 15.6114 0.393846 8.39397
C 14.2769 0.850034 8.40368
C 13.7818 1.67656 7.37411
C 14.7483 2.00457 6.32167
C 16.017 1.39753 6.27447
C 16.4413 0.540969 7.28822
C 17.062 1.72139 5.1543
C 16.6492 3.10533 4.63125
C 15.0892 3.12075 4.23358
C 14.272 3.13927 5.45015
C 14.3908 4.45384 6.2254
H 14.8364 10.4089 5.013
H 13.3882 11.9714 6.52637
H 11.2425 11.9804 8.21382
H 9.86115 10.8066 9.66427
H 9.07632 7.71578 10.5009
H 10.7726 4.50826 9.63583
H 9.06158 4.7089 9.10427
H 9.71487 5.13134 10.8339
H 11.7388 4.70226 7.19173
H 12.763 4.96806 4.8536
H 14.1011 6.00307 4.60897
H 14.5415 8.22012 4.78757
H 15.922 71.0907 9.25574
H 13.6532 0.594894 9.17876
H 12.742 2.00465 7.36873
H 17.3859 71.3043 7.28381
H 18.0507 1.65844 5.69977
H 17.0932 0.972613 4.3454
H 16.9193 3.93062 5.30987
H 17.1873 3.29656 3.68407
H 14.9152 4.04636 3.6355
H 14.839 2.18393 3.61691
H 13.2303 2.95136 5.21491
H 14.0633 4.39876 7.2798
H 15.4515 4.85799 6.25154
C 1.46728 22.7445 4.85857
O 0.328507 22.3471 4.88087
C 1.75863 24.0566 4.18963
C 0.599324 24.6558 3.63367
C 0.768034 25.5649 2.62414
C 2.04528 26.0515 2.29129
C 3.18146 25.4277 2.78789
C 3.07362 24.4139 3.77626
C 3.80813 24.9302 65.231
C 3.90396 26.1697 64.619
C 3.70429 27.3922 65.4147
C 3.81276 28.7325 65.009
C 3.86009 29.8711 65.8342
C 3.82033 29.7138 67.2636
N 4.15181 30.4489 68.4026
C 4.05298 29.5999 69.5537
C 4.53799 29.6352 70.8693
C 4.59061 28.403 0.276435
C 4.03665 27.1293 71.1761
C 4.06011 25.888 0.520644
C 4.49809 25.7543 2.00409
C 3.64155 24.7351 71.1758
C 3.32643 24.6832 69.8047
C 3.43963 25.8338 68.9894
C 3.37222 25.8856 67.5072
C 3.44791 24.785 66.619
C 3.42648 27.166 66.8244
C 3.47244 28.3762 67.6039
C 3.63184 28.3285 69.1164
C 3.58737 27.0454 69.7567
H 2.24714 22.0628 5.21296
H 70.9072 24.3544 3.93334
H 71.1447 25.9971 2.17515
H 2.05855 26.8276 1.543
H 3.91865 23.9091 4.17755
H 3.9647 23.9884 64.6153
H 4.14726 26.1731 63.5807
H 4.00437 28.8832 63.9582
H 3.90574 30.8652 65.4262
H 4.57999 31.4278 68.5279
H 4.8702 30.5135 71.3448
H 5.05924 28.476 1.23234
H 5.13871 24.9098 2.07269
H 5.04772 26.6359 2.41542
H 3.58408 23.7859 0.449942
H 3.05147 23.7439 69.3365
H 3.25868 23.7563 66.9683
S 21.9678 36.8932 16.4697
O 13.8051 36.1652 5.60938
C 12.6196 36.4118 5.57634
C 11.8306 36.0587 6.68208
C 10.546 36.5669 6.77409
C 10.0699 37.3435 5.72546
C 10.784 37.5142 4.52825
C 12.0891 37.0971 4.46092
O 19.7332 39.0216 17.8684
C 20.5729 39.2332 16.7494
C 21.9394 38.5374 17.0969
C 20.7882 40.7325 16.3888
C 21.5763 40.8918 15.0267
O 22.9472 40.6552 15.1643
C 21.0281 40.118 13.818
C 21.6242 38.6976 13.5801
C 19.5074 40.0715 13.9387
C 18.8417 39.6765 12.7531
C 17.4682 39.3761 12.7178
C 16.6864 39.6166 13.8846
C 17.3014 40.0589 15.0799
C 16.3315 39.9336 16.2888
C 18.7011 40.4205 15.0987
C 19.3852 41.3624 16.0576
C 18.5053 41.7793 17.2764
H 12.2532 35.4654 7.52554
H 9.90998 36.4252 7.67108
H 9.02428 37.7088 5.76539
H 10.3455 38.0482 3.64854
H 12.7419 37.2133 3.6052
H 18.8837 38.6636 17.5205
H 20.0865 38.7451 15.8772
H 22.8126 39.0144 16.5945
H 22.0789 38.5155 18.1861
H 21.2383 41.2842 17.23
H 21.5476 41.9474 14.8036
H 23.2887 40.9296 16.1019
H 21.2653 40.6935 12.93
H 21.1058 38.1011 12.7386
H 21.6922 38.1067 14.5472
H 22.6901 38.8089 13.3652
H 19.4306 39.6717 11.8547
H 16.9034 39.1125 11.8126
H 15.5362 39.3716 13.8759
H 16.1455 40.9471 16.7296
H 15.3632 39.4163 16.0309
H 16.7803 39.2846 17.0505
H 19.5565 42.3348 15.4949
H 18.5099 40.9843 18.0238
H 18.9635 42.671 17.6448
H 17.5073 42.109 17.0207
C 13.3512 41.2955 55.7002
C 12.4982 42.2485 55.0707
C 12.9605 43.0417 54.071
C 14.3334 43.0646 53.7399
C 15.2476 42.2088 54.4575
C 14.7334 41.254 55.4009
C 17.4477 37.4606 48.4996
O 17.4671 36.7944 47.4966
C 18.5494 38.4626 48.7246
C 19.7718 38.2309 48.0649
C 20.9466 38.9802 48.2603
C 20.96 40.0262 49.223
C 22.2066 40.7006 49.6097
C 22.2634 41.531 50.7023
C 21.0845 41.754 51.4763
C 21.1708 42.6931 52.548
C 20.0374 42.9811 53.306
C 18.8354 42.2564 53.1441
C 17.6869 42.4481 53.9943
C 16.4687 41.9065 53.6299
C 16.2828 41.0587 52.4512
C 15.0196 40.5585 52.0516
C 14.9573 39.6409 50.984
C 16.0513 39.4238 50.1864
C 17.33 39.8876 50.4573
C 18.5308 39.5114 49.706
C 19.7408 40.2689 49.9576
C 19.7981 41.1889 51.0482
C 18.7049 41.3311 52.0018
C 17.467 40.7544 51.6365
H 12.9508 40.4702 56.3553
H 11.4576 42.2897 55.3255
H 12.263 43.7488 53.5712
H 14.6447 43.6548 52.859
H 15.41 40.532 55.9081
H 16.5853 37.3965 49.2863
H 19.7158 37.4609 47.2997
H 21.873 38.7619 47.6596
H 23.1331 40.4433 49.1137
H 23.2485 41.9652 51.0598
H 22.1142 43.2373 52.8452
H 20.1844 43.7427 54.188
H 17.7857 43.0566 54.9352
H 14.1638 40.6218 52.6862
H 14.009 39.1474 50.791
H 15.8299 38.8094 49.3614
C 11.5614 7.71295 2.83169
C 11.6238 6.34495 2.57501
C 12.783 5.65604 2.11752
C 13.9679 6.52382 1.95569
C 15.1583 5.84884 1.6303
C 16.3345 6.75191 1.46654
C 16.2934 8.1291 1.6068
S 18.0796 8.72853 1.02154
C 18.5849 7.06178 0.644159
C 19.7545 6.6029 71.2945
C 19.9479 5.21727 71.2214
C 21.127 4.65121 70.4113
C 18.9953 4.2643 0.456829
C 19.1897 2.85401 0.719337
C 18.2363 2.11377 1.37869
C 16.9023 2.5583 1.59836
C 16.5641 3.84947 1.22567
C 17.6483 4.71965 0.882733
C 17.5892 6.16255 1.02921
C 15.173 4.50012 1.01745
C 15.0845 4.68301 70.8119
C 14.046 3.67996 1.41428
C 13.9201 2.18649 1.07532
C 12.9205 4.2062 1.9839
C 11.7196 3.41074 2.54509
C 15.1036 8.72648 1.99943
C 15.1812 10.1807 2.4504
C 13.9096 7.93874 2.25412
C 12.7218 8.48391 2.73898
H 10.5917 8.18669 3.1391
H 10.7706 5.68243 2.80002
H 20.4515 7.24983 70.8209
H 22.0504 4.96565 70.9321
H 21.1273 5.07413 69.3462
H 20.9763 3.57889 70.2316
H 20.2243 2.43929 0.398865
H 18.5028 1.08245 1.56195
H 16.145 1.80543 1.87277
H 15.7434 3.87444 70.3601
H 15.4437 5.72371 70.5629
H 14.0545 4.6402 70.3991
H 14.0433 1.51122 1.99569
H 12.8892 1.98503 0.704541
H 14.55 1.8892 0.207272
H 12.0315 2.36119 2.81177
H 11.3236 3.92516 3.43388
H 10.8197 3.34496 1.94419
H 14.1558 10.5852 2.68736
H 15.872 10.3731 3.3714
H 15.5303 10.9002 1.65331
H 12.6269 9.56586 2.89172
C 58.3247 52.0649 41.2093
O 58.4527 52.798 42.1581
C 58.4049 50.593 41.4054
C 58.8432 50.1191 42.6741
C 59.4431 50.9057 43.8594
C 58.9752 48.7423 42.9401
C 58.6612 47.8521 41.9098
C 58.2719 48.282 40.5769
C 58.1692 47.3088 39.5387
C 57.9489 47.7533 38.2009
C 57.698 46.7636 37.1351
C 57.3887 47.206 35.7869
C 57.2988 48.6037 35.553
C 57.5542 49.5538 36.5549
C 57.7705 49.1771 37.8851
C 57.8797 50.118 38.9535
C 58.181 49.7263 40.2836
C 57.2011 46.2191 34.6432
C 56.4702 46.9167 33.517
C 56.1009 46.102 32.2226
C 56.4905 44.9725 35.1778
C 57.2402 44.3518 36.3724
C 57.5707 45.3893 37.4828
C 57.7746 45.0199 38.7823
C 58.5617 45.8614 39.6782
C 58.687 45.5152 41.0669
C 58.7417 46.3933 42.0879
C 59.0193 45.8932 43.5217
C 60.5309 45.8337 43.62
H 58.2509 52.5415 40.2036
H 58.5633 51.3469 44.4086
H 60.1249 51.7797 43.5482
H 60.0429 50.3146 44.5467
H 59.3675 48.2452 43.9006
H 57.0516 49.0114 34.5441
H 57.4327 50.6209 36.3585
H 57.7481 51.1569 38.6876
H 58.2131 45.9349 34.2891
H 55.5016 47.2679 33.8962
H 57.1477 47.7185 33.1178
H 56.9707 45.4802 31.9049
H 55.9033 46.7946 31.4382
H 55.1955 45.482 32.3731
H 56.4951 44.2099 34.3578
H 55.4394 45.1886 35.5418
H 56.6742 43.4745 36.8298
H 58.2082 43.8282 35.9753
H 57.5826 43.984 39.1073
H 59.6499 45.7328 39.1748
H 58.7275 44.4458 41.3094
H 58.6559 44.852 43.6162
H 58.6528 46.531 44.2799
H 60.9986 46.8056 43.4452
H 60.9219 45.1502 42.8246
H 60.8671 45.3539 44.5933
C 31.4074 38.2332 62.8823
C 31.772 37.2208 62.0597
C 31.0314 35.9098 61.8599
C 31.7963 34.9206 62.8044
C 29.5945 35.9802 62.4181
C 28.6147 35.1618 61.8961
C 27.2502 35.4792 62.2595
C 26.172 35.5839 61.3048
C 26.4466 35.2517 59.8375
C 24.9111 36.0413 61.6641
C 24.6619 36.7039 62.901
C 25.6342 36.6577 63.8769
S 25.8472 37.8869 65.2243
C 27.6078 38.088 64.8283
C 28.5355 39.112 65.178
C 29.7581 39.199 64.5468
C 30.2017 38.1448 63.693
C 29.376 37.0179 63.4307
C 28.0294 36.9989 64.0556
C 26.95 36.1736 63.5194
C 28.2593 34.0475 56.2886
O 29.1119 34.5953 55.6591
O 27.8763 34.5542 57.5031
C 28.4809 35.5515 58.2344
C 27.7994 35.9566 59.3728
C 28.3103 36.9968 60.1388
C 29.4658 37.6454 59.7554
C 30.1197 37.2901 58.5855
C 29.6247 36.2295 57.8508
H 32.0032 39.1542 62.9726
H 32.6655 37.3543 61.4233
H 31.1169 35.5182 60.795
H 31.5209 33.9025 62.5897
H 32.8921 34.9102 62.6619
H 31.631 35.2384 63.8678
H 28.8478 34.4489 61.0423
H 25.6088 35.5246 59.1608
H 26.6965 34.1572 59.775
H 24.0604 36.1874 60.9762
H 23.634 37.0304 63.1534
H 28.2491 39.9525 65.846
H 30.5134 39.9929 64.6924
H 27.6129 33.2491 55.8321
H 27.9139 37.3265 61.1289
H 29.8668 38.5098 60.3569
H 31.0013 37.8112 58.182
H 30.0445 36.105 56.8838
C 46.8529 0.119922 32.9144
O 47.4759 0.264877 31.8953
C 45.8009 70.3374 33.0403
C 45.4161 69.4824 31.9896
C 44.5385 68.3151 32.1347
C 44.3053 67.2067 31.2691
C 43.3991 66.1458 31.5402
O 43.1184 65.3803 30.5314
C 42.1438 64.2407 30.311
C 42.7121 66.0833 32.7727
C 42.9483 67.1374 33.6782
C 42.3223 67.1657 34.9948
C 42.6687 68.092 35.9681
C 43.5618 69.2074 35.724
C 44.0937 70.1015 36.6514
S 45.4078 71.0874 35.8458
C 45.1062 70.2617 34.2809
C 44.115 69.3106 34.3582
C 43.8357 68.2584 33.4177
N 43.7605 70.0175 37.9025
C 42.8669 69.1683 38.311
C 42.1686 68.0847 37.4852
C 41.3313 66.0586 35.4196
C 40.6753 65.486 34.1509
C 41.8864 64.9269 33.3018
C 45.0714 67.2447 29.9518
C 45.0447 68.7795 29.5888
C 45.9942 69.5603 30.5882
H 47.0447 0.838514 33.7488
H 41.0347 64.4673 30.5045
H 42.327 64.0232 29.2303
H 42.576 63.3719 30.871
H 42.4962 69.0669 39.3579
H 42.3732 67.1526 37.9464
H 41.091 68.2712 37.5098
H 41.7329 65.2409 35.974
H 40.6314 66.5231 36.178
H 40.018 66.1938 33.529
H 39.9683 64.6608 34.4792
H 42.6314 64.3204 33.9275
H 41.4914 64.2092 32.532
H 46.1299 66.9423 30.0201
H 44.5798 66.5955 29.2136
H 45.2046 69.0678 28.5212
H 44.043 69.1812 29.7631
H 46.1042 70.589 30.3823
H 46.9774 69.1048 30.6213
C 56.5914 2.44055 22.8303
O 57.2832 2.22578 23.8073
C 56.3725 1.51351 21.7287
C 55.3916 1.92177 20.7532
O 54.8815 3.07442 21.0341
C 53.8577 3.83185 20.2089
C 55.0965 1.20465 19.5437
N 54.3745 1.26913 18.3246
C 54.8169 0.195656 17.5268
C 54.7347 71.1501 16.1822
C 55.34 69.9104 15.7168
C 55.3308 69.4933 14.3647
C 55.9366 68.2683 13.9468
C 56.7289 67.4199 14.791
C 57.3294 66.211 14.3787
C 58.1397 65.5255 15.299
C 58.438 66.0045 16.6134
C 57.8591 67.2041 17.0651
C 58.1533 67.788 18.4333
C 59.0564 67.2873 19.4315
C 59.2658 67.8863 20.6625
C 58.6389 69.108 20.9791
C 58.9145 69.9551 22.1481
C 58.2558 71.121 22.4808
C 57.2375 0.37827 21.6258
C 57.0584 70.8778 20.4413
C 55.8886 0.0441212 19.6341
C 55.6767 70.6509 18.3118
C 56.45 69.5069 17.8608
C 56.2553 69.0764 16.5038
C 56.9053 67.8444 16.1973
C 57.381 68.9231 18.7902
C 57.6131 69.6185 20.0782
H 56.0383 3.44727 22.8987
H 54.518 4.16882 19.3627
H 53.5672 4.72269 20.8212
H 53.0262 3.17509 19.9373
H 53.4514 1.72218 18.0424
H 54.0826 0.424962 15.4754
H 54.6781 70.0777 13.7141
H 55.9968 67.9754 12.9179
H 57.1049 65.7736 13.3715
H 58.665 64.5848 14.9879
H 59.1678 65.4564 17.1927
H 59.6336 66.34 19.2263
H 59.9557 67.4195 21.3877
H 59.6699 69.6081 22.7685
H 58.4361 0.259005 23.4735
C 4.09141 36.998 19.3654
C 4.18388 38.3092 20.0253
O 5.06125 38.608 20.8985
C 5.98928 37.4753 21.526
C 3.29691 39.3273 19.6059
N 2.86055 40.6135 20.0401
C 1.70737 40.9706 19.3236
C 0.594875 41.8434 19.3822
C 70.9667 41.8677 18.1971
C 69.8105 42.6865 18.5198
C 69.9636 43.283 19.8512
C 68.8752 44.1321 20.254
O 69.1282 44.805 21.3163
C 67.8926 45.5625 21.882
C 67.6895 44.0907 19.5231
C 67.5183 43.367 18.3122
C 66.3723 43.4998 17.5066
C 66.2967 42.7862 16.3168
C 67.2451 41.8197 15.9158
C 68.4305 41.6 16.6625
C 69.4862 40.5935 16.4726
C 69.3916 39.35 15.834
C 70.4213 38.4269 15.8689
C 0.385594 38.5795 16.5719
C 1.3894 37.5265 16.7856
C 2.41602 37.6981 17.7404
C 3.27573 36.689 18.325
C 2.57692 38.9929 18.4471
C 1.53399 40.0624 18.2574
C 0.465266 39.8704 17.2459
C 70.7285 40.8357 17.2013
C 68.5784 42.4933 17.7977
C 71.2587 42.77 20.2846
C 0.391742 42.8363 21.7511
H 4.69789 36.0835 19.6884
H 5.34347 36.7417 21.9831
H 6.74926 37.9711 22.1876
H 6.54955 37.0462 20.6257
H 3.25405 40.9295 20.9508
H 67.9949 45.4959 23.023
H 67.0231 44.9598 21.7541
H 67.9421 46.5372 21.4493
H 66.8334 44.7357 19.7983
H 65.515 44.1601 17.7486
H 65.3832 42.9462 15.7818
H 67.1045 41.222 15.0387
H 68.4596 39.142 15.3035
H 70.2528 37.4941 15.3437
H 1.29895 36.5326 16.3296
H 3.251 35.6451 17.9383
H 1.20125 43.6034 21.9052
H 70.7634 43.2098 22.3495
H 0.705192 41.839 22.1573
C 19.5632 24.6138 24.7685
O 19.2283 25.7623 24.9359
C 19.4191 23.8354 23.5241
C 19.9931 22.4874 23.5861
O 20.2157 21.9782 24.7693
C 20.6317 20.5572 24.9811
C 20.3042 21.9043 22.3446
S 21.2526 20.3061 22.1467
C 20.0628 19.3991 21.087
C 19.8738 22.492 21.1575
O 20.2838 21.9905 20.0161