37070
Lattice='70.6 0.0 0.0 0.0 70.6 0.0 0.0 0.0 70.6' Properties=species:S:1:pos:R:3 Timestep:=T pbc=F F F 1229=T Atoms.=T
C 56.0231 63.6217 6.57838
C 55.1443 63.7568 5.51866
C 55.514 64.5677 4.46855
C 54.6022 64.2926 3.26218
C 56.6203 65.4817 4.49256
O 56.8311 66.3664 3.5779
C 57.6824 67.6588 3.86284
C 57.5173 65.2514 5.62061
C 58.919 65.8688 5.76951
C 57.1636 64.4518 6.71087
H 55.8418 62.8979 7.35883
H 54.3073 63.102 5.38239
H 55.179 64.1965 2.31375
H 53.8608 65.0772 3.05768
H 53.9441 63.4644 3.49286
H 58.7816 67.3848 4.03035
H 57.5681 68.3159 2.95143
H 57.127 68.1644 4.76074
H 59.5313 65.3641 6.56008
H 59.5134 65.7492 4.84935
H 58.8283 67.0173 5.97125
H 57.7811 64.3746 7.67321
S 7.8108 55.1509 32.2952
C 9.70256 54.7419 32.3259
C 10.526 55.3919 33.3903
C 10.7542 56.8264 33.4317
C 11.5712 57.344 34.4174
C 11.9669 58.8321 34.6038
C 12.2401 56.4495 35.3552
C 13.3314 56.8776 36.1859
C 13.8345 55.9988 37.1716
C 13.1731 54.7752 37.449
C 12.2869 54.2619 36.5128
C 11.8143 55.0531 35.3798
C 10.9213 54.5428 34.4235
H 7.81672 55.9598 33.3975
H 9.8549 53.6354 32.2419
H 10.0023 55.1295 31.3366
H 10.2556 57.53 32.7274
H 11.1821 59.4105 34.0613
H 13.0184 59.0595 34.2154
H 12.0033 59.0549 35.6741
H 13.7625 57.8325 36.0057
H 14.7218 56.2407 37.7436
H 13.4527 54.1185 38.352
H 11.8176 53.3128 36.7431
H 10.6698 53.4733 34.3607
C 5.63238 65.119 67.4548
O 5.17975 64.0645 67.7984
C 6.36161 65.1401 66.1032
C 5.62868 64.7462 64.9587
C 4.14869 64.3714 65.0727
C 6.258 64.5547 63.748
C 7.61749 64.9265 63.5745
C 8.33057 65.353 64.7359
C 7.72396 65.461 66.0044
C 8.4596 66.1426 67.1522
C 9.90503 65.5842 67.2061
C 10.6257 65.8778 65.9419
C 9.88219 65.4448 64.6299
C 8.41883 64.5139 62.3413
C 7.41336 64.3326 61.1034
C 6.38455 63.378 61.5044
C 5.59063 63.0243 60.2781
C 5.48024 63.9334 62.5576
H 5.67713 65.9979 68.1171
H 3.52447 64.6347 64.1831
H 4.05496 63.3172 65.3731
H 3.83497 64.779 66.0666
H 8.45571 67.2435 67.072
H 7.96419 65.9323 68.1006
H 9.94458 64.4563 67.485
H 10.4066 66.0518 68.0955
H 10.8607 66.9419 65.8932
H 11.6444 65.4191 66.029
H 10.1444 66.1161 63.7399
H 10.2297 64.4335 64.2684
H 8.86161 63.5469 62.5958
H 9.26434 65.2332 62.0779
H 7.93458 63.9466 60.1801
H 6.99185 65.3579 60.831
H 6.94168 62.3857 61.8652
H 6.2658 62.4612 59.5782
H 4.65426 62.4772 60.4507
H 5.25462 63.9763 59.7617
H 4.88409 63.0801 63.0035
H 4.69202 64.6844 62.1315
S 30.9023 30.8811 49.7855
C 34.4765 25.0191 54.7788
C 34.9209 26.3413 54.4744
C 35.5101 27.0172 53.3568
O 35.7437 26.5373 52.2184
C 35.5078 24.9968 51.7959
N 35.5653 28.3612 53.6989
C 35.173 28.6215 55.0662
C 35.1634 29.7264 55.9254
C 35.5085 31.1312 55.3929
C 34.6613 29.5666 57.2288
C 34.2826 28.2798 57.7536
C 34.253 27.177 56.8914
C 34.7235 27.4049 55.5732
C 33.8743 25.743 57.1943
C 33.4703 24.8782 55.8853
C 32.2202 25.6032 55.2975
H 31.8961 30.7432 50.7219
H 34.7091 24.1784 54.1945
H 34.4109 24.9694 51.8063
H 35.8166 24.3427 52.6283
H 36.0135 24.8394 50.7911
H 35.5256 29.1432 53.0621
H 35.7147 31.0472 54.2879
H 34.6595 31.7901 55.6344
H 36.3829 31.4898 55.9582
H 34.5989 30.337 57.9474
H 33.8256 28.1584 58.7449
H 33.155 25.7037 58.007
H 34.7954 25.2601 57.6187
H 33.2602 23.8325 56.189
H 32.4743 26.6287 54.9409
H 31.6478 24.9286 54.5885
H 31.4987 25.8177 56.0477
C 34.7404 61.142 9.26577
O 35.7233 61.8431 9.1176
C 33.4059 61.539 8.68241
N 33.1364 62.7142 8.247
C 31.975 63.0196 7.81112
C 31.8047 64.3856 7.2428
O 30.7991 64.8954 6.75799
C 30.9087 62.1435 7.81287
C 31.0895 60.8525 8.3892
C 32.4102 60.4887 8.72682
C 32.7906 59.0709 9.21021
C 29.9881 59.8019 8.65898
C 28.6706 60.643 8.59055
C 28.5434 61.3032 7.18575
C 28.7916 60.2279 6.06371
C 27.1101 61.7979 6.87799
C 26.5931 62.9614 7.73635
C 29.5448 62.5361 7.22745
H 34.931 60.218 9.83576
H 32.6628 65.1459 7.27173
H 31.9736 58.3034 9.06607
H 33.6045 58.7256 8.55819
H 33.08 59.0736 10.2855
H 30.0689 58.965 7.86388
H 30.2563 59.3196 9.66365
H 27.8027 59.999 8.71927
H 28.6505 61.3933 9.41906
H 28.6311 60.6728 5.05486
H 28.0365 59.3964 6.15496
H 29.8416 59.8697 6.16227
H 27.0492 62.0934 5.80552
H 26.381 60.9526 7.05278
H 27.1047 63.9089 7.38689
H 25.484 63.0374 7.55972
H 26.8289 62.8334 8.81856
H 29.2121 63.4564 7.67425
H 29.7468 62.8326 6.20045
C 31.8505 6.69276 2.83741
C 33.2644 6.47296 2.82273
C 34.0664 7.68354 2.74671
C 35.499 7.60211 2.56305
C 36.2191 8.74994 2.21223
C 37.6292 8.73158 1.5786
C 35.582 10.0364 2.15341
C 35.7654 11.4403 1.8195
N 34.6978 12.1836 2.04178
C 33.5849 11.421 2.41223
C 32.1841 11.5211 2.59327
O 31.6382 12.6642 2.54718
C 32.3781 13.9947 2.04808
C 31.2877 10.4024 2.84035
O 30.0113 10.3951 2.74534
C 29.2888 11.6736 2.2422
C 31.8891 9.10053 2.88028
C 31.1247 7.92216 2.79614
C 33.3645 8.95615 2.70357
C 34.1409 10.1015 2.516
H 31.205 5.79836 2.69396
H 33.6438 5.40016 2.82831
H 36.0159 6.61213 2.50594
H 37.5543 9.2344 0.601271
H 38.0116 7.71034 1.51046
H 38.2661 9.24017 2.34213
H 36.7178 11.8326 1.44729
H 34.7744 13.2376 1.84982
H 31.576 14.8143 2.24779
H 32.4977 13.8131 0.93598
H 33.3228 14.0347 2.64429
H 29.3949 12.3757 3.09146
H 29.803 12.028 1.32637
H 28.2601 11.3312 1.961
H 30.0081 7.96592 2.71549
C 52.0653 3.03653 40.3741
O 53.1693 2.65865 40.6899
C 51.3427 3.95965 41.3374
C 51.9624 4.28479 42.5447
C 51.3365 5.12582 43.4851
C 52.0006 5.56335 44.7463
C 51.3451 6.42575 45.6038
C 50.057 7.03267 45.2067
C 49.5112 8.1134 45.8974
C 48.374 8.78505 45.4625
C 47.6606 8.4032 44.3289
C 48.138 7.2674 43.5825
C 47.6151 6.92023 42.2791
C 48.2102 6.01326 41.3852
C 49.4166 5.39576 41.8197
C 50.0951 4.51662 40.9735
C 50.0693 5.7275 43.1406
C 49.4231 6.67895 43.9297
C 46.4405 7.75159 41.6596
C 45.9896 8.91369 42.5541
C 46.5225 9.19617 43.8249
C 45.8649 10.3195 44.6475
C 45.1768 9.73644 45.8991
H 51.6457 2.80915 39.4116
H 52.9155 3.7492 42.7299
H 53.0224 5.16592 44.9947
H 51.8243 6.7285 46.5682
H 50.009 8.37604 46.8462
H 48.1226 9.69019 46.0471
H 47.9273 5.8424 40.2898
H 49.674 4.3326 39.9618
H 45.5853 7.08072 41.39
H 46.8036 8.18668 40.676
H 45.0563 9.43021 42.1795
H 46.6284 11.0463 44.9664
H 45.0755 10.8111 44.0533
H 45.1623 10.5603 46.7324
H 45.796 8.91232 46.2328
H 44.1324 9.48543 45.7295
C 1.86509 3.69605 0.86271
O 1.67007 4.83801 1.21724
C 1.14698 3.10908 70.2829
C 1.4601 1.73466 69.9533
C 2.61622 1.11048 0.156003
O 3.62046 0.973225 70.1066
C 0.848459 1.09078 68.8507
C 0.179948 1.88948 67.863
C 70.6209 3.28025 68.1664
C 70.0318 4.21669 67.081
O 69.0165 4.81151 67.3142
C 0.313875 3.83458 69.3862
C 70.4982 5.29545 69.6987
C 70.3592 1.30785 66.5443
C 68.8104 1.17558 66.5397
C 0.307258 70.4334 66.3691
C 1.8724 70.5437 66.1552
C 0.0371371 69.6226 67.6838
C 0.832794 70.1425 68.8456
C 0.315553 69.6501 70.1474
H 2.5762 3.08184 1.49068
H 2.58839 0.816042 1.23602
H 70.5019 4.22489 66.1286
H 69.4071 5.45641 69.579
H 0.346542 5.91803 68.886
H 0.190862 5.54936 0.146568
H 0.0595922 1.86919 65.6633
H 68.3861 0.463163 65.7983
H 68.4437 0.806263 67.5009
H 68.242 2.11747 66.2929
H 70.3741 69.9972 65.5277
H 2.32248 69.5516 65.9787
H 2.37071 0.338235 67.1333
H 2.13203 0.588311 65.3226
H 69.5313 69.6148 67.9467
H 0.159305 68.486 67.559
H 1.8933 69.8408 68.8089
H 0.0800226 68.6181 70.1297
H 1.21442 69.6136 0.251082
H 70.0881 70.2782 70.5021
C 28.0616 54.5298 61.7487
C 27.5125 55.7574 61.5817
C 27.5548 56.7143 62.6329
O 27.2299 57.9436 62.4087
C 26.6997 58.735 61.1935
C 28.0602 56.3326 63.904
C 28.2149 57.284 65.1263
C 28.5589 55.0337 64.0597
C 29.257 54.5151 65.3722
C 28.6808 54.201 62.9544
C 28.3847 65.0966 62.094
O 27.8929 65.3961 63.1573
C 28.0817 63.7045 61.6033
C 27.1855 62.9306 62.3387
C 27.1809 61.5093 62.1901
C 26.4896 60.7392 63.338
C 27.8166 60.9641 61.0409
C 27.7728 59.5187 60.6209
C 28.5488 61.7796 60.1488
C 28.8025 63.1146 60.5259
C 29.6927 64.1135 59.7755
O 30.1928 63.968 58.6836
H 27.984 53.7913 60.8764
H 27.0247 56.0191 60.6356
H 25.8591 59.348 61.5546
H 26.388 57.9112 60.4748
H 28.0625 56.8661 66.1033
H 27.5563 58.1661 64.9186
H 29.2443 57.7263 65.2867
H 29.3651 55.3182 66.1128
H 28.6257 53.6484 65.622
H 30.2521 54.2119 65.0609
H 29.1359 53.2229 63.0667
H 28.8922 65.8323 61.4338
H 26.5776 63.4168 63.1476
H 25.4512 60.5719 63.1147
H 27.0765 59.8395 63.5524
H 26.5409 61.3841 64.2686
H 28.7563 59.0251 60.7459
H 27.7253 59.4415 59.4886
H 29.027 61.3964 59.2155
H 30.0147 65.1044 60.3218
C 2.63454 67.2261 70.0672
C 3.57296 67.596 0.368713
C 4.98407 67.9154 70.5215
C 5.8614 68.419 0.922545
C 7.12767 68.8317 0.445679
C 7.40005 69.0884 69.6518
C 8.52016 70.1034 69.3511
C 6.45639 68.6999 68.6445
C 6.58289 69.0163 67.2932
C 5.56185 68.639 66.407
C 4.41734 67.9305 66.7969
C 4.32322 67.5428 68.1355
C 5.25536 67.971 69.088
C 3.07339 66.7729 68.7024
C 5.25617 68.7917 2.25252
C 4.23514 67.8348 2.71893
C 3.63664 68.2813 4.06415
O 3.18261 67.6447 1.63323
C 13.1464 68.5259 66.2099
O 13.5325 67.3869 66.3363
C 12.0426 68.9748 67.116
C 11.2631 70.0911 66.7512
C 10.0821 70.501 67.4023
C 9.72438 69.6678 68.4856
C 10.5412 68.6163 68.9785
C 11.6805 68.2162 68.2697
H 1.62782 66.9475 70.3955
H 7.89477 69.2188 1.17232
H 8.90802 70.4428 70.3979
H 8.05721 0.397403 68.9042
H 7.55585 69.4791 66.8994
H 5.73363 68.8511 65.3595
H 3.60869 67.6097 66.0758
H 2.16961 66.7744 67.9926
H 3.38063 65.7305 68.761
H 6.05876 68.9813 3.02818
H 4.87479 69.8212 2.08732
H 4.68982 66.7969 2.75585
H 4.51919 68.408 4.81616
H 2.8534 67.5055 4.45867
H 3.0926 69.2852 3.99695
H 13.5152 68.9802 65.251
H 11.5588 70.649 65.8203
H 9.44539 0.82199 67.1646
H 10.1793 68.0708 69.8803
H 12.2853 67.3238 68.5558
C 17.7413 4.33334 68.6453
C 16.9875 4.74085 67.6047
C 16.1786 5.92741 67.694
C 15.506 6.42019 66.4589
C 16.1822 6.63343 68.9301
C 15.2734 7.88242 69.1112
C 16.9156 6.13908 70.0666
C 17.0901 7.02191 0.744
C 17.7119 5.02824 69.8805
C 11.3451 8.77942 67.6563
O 10.493 9.5056 68.1084
C 10.834 7.62186 66.8341
C 9.4644 7.49092 66.6199
C 8.94744 6.46183 65.8142
C 7.41521 6.39306 65.754
O 6.8367 6.83487 66.705
C 9.86214 5.49033 65.3218
C 9.34895 4.46874 64.3012
C 11.246 5.5121 65.5964
O 12.0939 4.57522 65.3842
C 11.8807 3.08518 64.8999
C 11.777 6.6796 66.2836
O 12.9931 6.87984 66.5622
C 14.2303 5.8582 66.2277
H 18.3623 3.44015 68.4708
H 17.0613 4.21315 66.6225
H 15.5688 7.55373 66.4615
H 16.2645 6.11093 65.658
H 14.4429 7.64164 68.4232
H 14.8265 7.98797 70.1188
H 15.8192 8.82037 68.9077
H 17.051 8.09854 0.500009
H 18.1317 6.9587 1.09989
H 16.2955 6.77653 1.45055
H 18.3065 4.68126 0.126081
H 12.4144 8.79888 68.0062
H 8.81117 8.19596 67.1227
H 6.828 5.99548 64.8529
H 10.0089 4.48029 63.3813
H 9.23751 3.38522 64.7846
H 8.32045 4.69617 63.8108
H 11.2027 3.0486 64.0227
H 11.3416 2.61431 65.7155
H 12.8841 2.62735 64.7632
H 13.8792 5.00068 66.8489
H 14.1467 5.55305 65.1546
C 0.68866 43.4698 1.13536
C 0.189344 43.0815 2.38965
C 0.710013 41.8866 2.92064
C 1.71512 41.1601 2.33558
C 2.31906 41.6333 1.12794
C 1.67277 42.7192 0.456926
C 2.21084 40.0155 67.198
C 0.980257 40.6555 67.1159
C 0.742875 41.195 65.686
C 70.6265 40.8115 68.151
O 69.4649 41.3128 68.0201
C 68.8097 42.0717 66.751
C 0.395852 40.3383 69.4603
O 70.3087 40.7174 70.5032
C 69.4086 41.9749 70.6122
C 1.55551 39.5339 69.494
C 2.52906 39.444 68.4189
C 3.9783 38.9066 68.6118
C 4.07667 37.6302 67.8431
C 5.46873 37.4709 67.2144
C 4.30729 38.6752 70.1177
C 3.28512 39.2819 0.541426
C 3.44777 40.8441 0.437047
C 1.83519 38.7858 0.215852
H 0.435707 44.4386 0.749471
H 70.0915 43.6827 3.01174
H 0.252549 41.5739 3.8619
H 2.07978 40.2605 2.87004
H 1.98438 42.9347 70.0636
H 2.95102 40.0256 66.3366
H 0.425531 42.2941 65.8198
H 1.61365 41.1233 64.9923
H 70.4686 40.6326 65.2504
H 68.5885 41.315 65.9772
H 67.8429 42.4671 67.1564
H 69.3738 43.0657 66.6109
H 68.3417 41.5591 70.3314
H 69.7639 42.7602 69.8834
H 69.4385 42.2425 1.11634
H 4.56519 39.7601 68.1143
H 3.31742 37.6356 67.0617
H 3.77984 36.7681 68.5656
H 5.6109 36.4478 66.7651
H 6.29033 37.5615 67.9469
H 5.72372 38.2025 66.3928
H 4.36281 37.5498 70.2981
H 5.35922 39.0871 70.3533
H 3.48266 38.996 1.61579
H 4.41237 41.2001 0.796869
H 3.62556 41.1686 69.988
H 1.08092 39.0986 0.978289
H 1.89196 37.6735 0.169078
C 2.25485 63.0615 67.2561
O 1.72942 63.53 66.268
C 2.12567 61.6461 67.8019
C 1.55287 60.6342 66.9606
C 1.41558 59.3229 67.4248
C 1.71019 59.0206 68.7561
C 2.33508 59.9788 69.5823
C 2.48162 61.2916 69.1473
C 3.26026 62.2353 70.0868
C 1.57103 57.5233 69.1239
C 0.39604 56.8908 68.3927
C 70.4344 55.7115 69.1055
C 68.8849 55.5168 68.9329
C 0.917838 56.7592 66.9568
C 0.703922 58.3107 66.4925
C 70.4626 60.7865 0.575461
O 0.231351 61.354 1.57209
C 69.7574 59.462 0.789787
C 69.1752 59.111 2.0332
C 68.3322 58.0098 2.15617
C 68.0953 57.2144 1.05216
C 68.5341 57.6891 70.419
C 68.1431 56.8873 69.141
C 69.4856 58.7127 70.243
H 2.76269 63.9106 67.8288
H 1.31595 60.8889 65.9629
H 2.65987 59.6914 0.0107747
H 3.28324 61.8466 0.503137
H 4.26732 62.4075 69.7187
H 2.69226 63.1632 70.1386
H 2.44895 56.8754 68.9434
H 1.48115 57.3974 70.2328
H 70.1389 57.5888 68.3785
H -0.0130539 55.9054 70.2208
H 0.480554 54.851 68.8423
H 68.6974 55.116 67.8978
H 68.5545 54.7119 69.6241
H 1.98328 56.5473 66.9236
H 70.933 56.0089 66.3598
H 70.2307 58.5983 66.5196
H 1.0575 58.388 65.4095
H 0.145145 61.1283 70.1609
H 69.2918 59.7853 2.8889
H 67.9498 57.5663 3.10632
H 67.463 56.2658 1.19416
H 67.0837 56.5369 69.2727
H 68.2922 57.4941 68.2185
H 69.9014 59.065 69.2917
C 30.1652 54.1787 8.24399
O 30.4894 54.9517 7.37155
C 30.7278 54.3096 9.6461
C 30.4546 55.48 10.3587
C 29.6816 56.5315 9.51465
C 30.8464 55.7378 11.6824
O 30.5695 56.8776 12.2063
C 30.673 57.0294 13.7122
C 31.5047 54.5301 12.2596
C 31.8775 54.2203 13.6906
C 32.2331 52.9603 13.7426
C 32.6098 52.362 15.0857
N 32.2842 52.3851 12.4384
C 31.7161 53.317 11.5624
C 31.4507 53.1991 10.1637
O 31.8804 52.2087 9.46491
C 31.6184 51.8974 7.96527
C 30.3018 46.3739 16.2102
C 29.8874 47.2912 17.2203
C 30.2376 48.6347 17.1295
C 30.9849 49.1076 16.0557
O 31.309 50.3746 16.0973
C 32.1159 50.8573 14.9422
C 31.3925 48.1748 15.0626
C 31.0492 46.8561 15.103
H 29.5401 53.2838 7.99268
H 30.2864 56.8592 8.61538
H 29.3088 57.4158 10.1396
H 28.742 56.0807 9.07421
H 30.0828 56.1897 14.1227
H 30.2451 58.0027 14.0536
H 31.7762 57.0474 13.9583
H 31.718 54.8871 14.5104
H 33.6886 52.4129 15.2603
H 32.144 52.9179 15.9649
H 32.6179 51.4706 12.1645
H 32.4909 51.2736 7.69655
H 30.6359 51.3468 7.92077
H 31.6788 52.8847 7.44043
H 29.9926 45.2786 16.1963
H 29.1823 46.9571 17.9838
H 29.9203 49.3402 17.9455
H 33.0445 50.2245 14.8748
H 31.4149 50.6558 14.0627
H 32.0889 48.5582 14.2352
H 31.3607 46.1805 14.2791
C 60.5218 7.69885 38.2478
O 60.383 6.92829 37.3287
C 61.4709 8.85929 38.2979
C 61.7228 9.81212 39.3318
C 62.7051 10.8563 39.0742
C 63.3321 10.7794 37.855
N 63.1324 9.88767 36.8912
C 62.2025 9.06794 37.1038
C 58.8867 10.7046 38.9876
C 57.6899 10.8185 38.3059
C 56.6091 11.5595 38.9107
C 55.2981 11.6082 38.3481
C 54.3074 12.2525 39.0684
C 54.5417 12.9313 40.3299
C 53.8624 13.3945 41.5148
N 54.6216 13.8131 42.5285
C 55.9303 13.5184 42.2017
C 57.2369 13.3975 42.7742
C 58.2714 12.6424 42.2114
C 58.1665 12.1299 40.8758
C 59.1526 11.2126 40.285
O 60.0781 10.8039 41.0562
C 61.0988 9.6752 40.6742
C 56.9305 12.2718 40.1473
C 55.9065 13.0487 40.8233
H 59.676 7.62876 38.9602
H 62.9735 11.5309 39.8947
H 64.0891 11.5476 37.616
H 61.8782 8.3538 36.3471
H 59.6276 10.0692 38.4994
H 57.5245 10.3482 37.3663
H 55.0499 11.2002 37.3698
H 53.2531 12.368 38.6295
H 52.7579 13.4441 41.6025
H 54.259 14.2015 43.4618
H 57.4469 13.8955 43.7697
H 59.2149 12.4936 42.6696
H 60.5865 8.70145 40.7844
H 61.9103 9.79735 41.4731
C 53.9272 58.3667 38.9144
O 54.5392 57.3442 39.1061
C 54.6849 59.533 38.3867
S 54.2212 60.8777 37.2709
C 55.986 61.3204 37.0958
C 56.5884 62.2809 36.2638
C 55.7485 63.2645 35.4057
C 58.0175 62.295 36.1826
C 58.7915 61.389 36.8524
C 60.2758 61.5504 36.811
O 61.0536 60.6355 36.9902
C 58.2206 60.4056 37.7073
C 56.8377 60.3672 37.6919
C 56.0407 59.4353 38.6502
C 56.8303 59.1407 39.9041
C 57.0233 60.5691 40.5154
N 58.1453 58.5909 39.524
C 58.7987 57.9371 40.5958
C 58.0293 57.1619 41.6651
C 58.9371 59.4394 38.6589
C 54.6192 58.4414 44.4418
C 53.916 58.2527 43.2398
C 54.2741 58.9784 42.1243
C 55.2559 59.9803 42.1823
C 55.6033 60.9462 41.0353
C 55.9549 60.1712 43.3525
C 55.6736 59.3261 44.4346
H 52.812 58.3263 39.1604
H 56.2928 63.7838 34.57
H 54.8463 62.6575 35.0072
H 55.1189 63.9601 36.0464
H 58.495 63.1405 35.6435
H 60.7159 62.5602 36.6635
H 56.2726 58.4005 40.5462
H 57.7008 60.4759 41.331
H 57.4345 61.3228 39.7819
H 59.6871 57.3033 40.2771
H 59.4241 58.7091 41.1504
H 57.7077 57.9003 42.5165
H 58.6681 56.3448 42.0867
H 57.2271 56.6025 41.2648
H 59.6083 60.0056 39.346
H 59.6558 58.7469 38.1758
H 54.2797 58.0042 45.3564
H 53.0188 57.6109 43.1983
H 53.6219 59.0387 41.2427
H 54.9008 60.8979 40.1396
H 55.6241 62.0054 41.428
H 56.6947 60.9233 43.5722
H 56.1317 59.5711 45.3711
C 3.617 23.6816 7.18397
C 3.92458 22.8129 6.18099
C 3.37078 21.5411 6.26585
C 2.42882 21.237 7.26205
C 1.82895 19.858 7.45501
C 2.20996 22.1531 8.3571
C 2.77614 23.4193 8.32127
C 70.5786 22.6218 5.23597
O 69.422 22.277 5.33144
C 0.945153 21.9256 4.276
C 1.71382 22.6725 3.39018
O 1.78977 23.9461 3.34239
C 1.21092 25.1699 4.21393
C 2.51556 21.9381 2.39972
O 3.33539 22.4947 1.60024
C 3.73952 24.0656 1.53423
C 2.17918 20.5675 2.20248
C 2.68903 19.8633 1.07494
C 2.49266 18.5155 0.885273
C 1.70863 17.7611 1.83161
C 1.56119 16.3637 1.66905
C 0.713208 15.7282 2.59143
C 0.0720734 16.3074 3.69378
C 0.431273 17.6509 4.04941
C 0.0517149 18.2985 5.29341
C 0.440402 19.6497 5.44925
C 0.367444 20.0622 6.8921
C 0.97163 20.4698 4.37656
C 1.45048 19.7829 3.20355
C 1.20272 18.3726 3.06918
H 4.04953 24.6496 7.00781
H 4.53051 23.1135 5.29355
H 3.66758 20.754 5.48985
H 2.30444 19.0671 6.80012
H 1.65977 19.5694 8.50729
H 1.57292 21.9044 9.20641
H 2.69263 24.1814 9.11245
H 0.244421 23.4369 5.91002
H 1.87125 25.1651 5.11029
H 70.7449 24.8977 4.32635
H 1.39357 26.0363 3.53665
H 4.56953 23.9605 0.785662
H 2.8094 24.6357 1.22951
H 3.99637 24.2794 2.59736
H 3.23715 20.4548 0.278867
H 2.90933 18.1102 -0.0338503
H 2.14 15.7961 0.876128
H 0.530306 14.6779 2.45186
H 69.9682 15.7883 4.32785
H 70.1062 17.7182 6.03397
H 0.0460624 21.1367 7.06064
H 70.2073 19.3868 7.46824
C 11.8254 61.4737 65.4552
O 12.2528 62.6056 65.3725
C 10.8768 60.8528 64.4305
C 11.4506 60.3623 63.2111
C 10.6099 59.8568 62.1882
C 9.17799 59.6764 62.4628
C 8.39746 59.0081 61.5032
C 7.02941 59.3171 61.8121
C 6.05273 59.4187 60.6235
C 4.89603 59.9942 61.1041
N 5.02994 60.2919 62.4693
C 6.36824 59.9862 62.8828
C 7.20502 60.3416 63.9312
C 8.60187 60.2729 63.6881
C 9.49512 60.8448 64.675
C 9.05362 61.676 65.911
C 7.59647 62.131 65.7052
C 6.75308 60.9198 65.3157
C 3.89805 60.4106 60.1481
C 4.16929 60.2393 58.7852
C 5.55266 59.92 58.2298
C 6.61746 59.3731 59.2671
C 7.92607 59.0729 58.9829
C 8.36872 59.1975 57.5412
C 8.88141 58.5569 60.0917
C 10.3437 58.9553 59.8447
C 11.1117 59.5196 60.8499
C 12.6062 59.825 60.5725
C 13.4915 59.7426 61.783
C 12.9511 60.5699 62.9639
H 11.9041 61.0235 66.4797
H 4.29404 60.7333 63.1085
H 9.13146 61.1451 66.8314
H 9.65728 62.5735 66.0271
H 7.62311 62.9265 64.9012
H 7.20309 62.6081 66.6735
H 5.66277 61.1127 65.3565
H 6.94705 60.0197 65.9527
H 2.91479 60.8842 60.5348
H 3.37243 60.4394 57.965
H 6.05259 60.7868 57.736
H 5.45342 59.284 57.3199
H 8.23739 60.3331 57.3594
H 9.47681 58.8748 57.4563
H 7.71248 58.5668 56.9119
H 8.80995 57.4652 60.094
H 10.8703 58.7413 58.9656
H 12.6671 60.7893 59.9948
H 12.9599 59.2215 59.6973
H 14.4584 60.0771 61.4755
H 13.497 58.7033 62.1096
H 13.1207 61.5921 62.7378
H 13.5528 60.4226 63.921
C 28.7161 44.8464 56.1572
C 28.3527 43.5568 56.3374
C 28.6635 42.9505 57.7346
C 29.3234 41.616 58.0953
C 30.5068 41.4713 58.7744
C 31.436 42.5413 59.3307
C 32.7649 42.391 59.7354
C 33.6836 43.4793 59.9545
C 35.152 43.4993 60.1252
C 35.8697 42.2932 60.7404
C 35.8686 44.6826 59.8165
C 37.3768 44.8466 59.9083
O 38.2498 43.9723 60.3672
C 39.7054 44.3487 60.4533
C 37.7212 46.0979 59.5426
S 36.4697 47.1893 58.9769
C 35.1932 45.8432 59.3433
C 33.8188 45.9293 59.2389
C 33.0379 44.782 59.6507
C 31.7371 44.9711 59.1106
C 31.6062 46.1633 58.3168
C 30.4863 46.3229 57.4884
C 30.2575 47.6188 56.7064
C 29.6294 45.1881 57.2942
C 29.7364 44.0444 58.1058
C 30.8172 43.867 59.0538
C 32.8723 46.9849 58.5886
H 28.4748 45.5164 55.3086
H 27.5957 43.1465 55.7273
H 27.7695 43.0484 58.3738
H 28.7238 40.7666 57.6666
H 30.9024 40.4562 58.8485
H 33.1614 41.4228 59.9606
H 36.2104 42.5538 61.7447
H 35.1915 41.4038 60.8796
H 36.7558 41.9963 60.1449
H 40.0892 44.4421 59.4256
H 40.1977 43.4986 60.9764
H 39.7715 45.2621 61.0509
H 38.7986 46.464 59.5366
H 30.5404 47.6016 55.6698
H 29.1836 47.9646 56.8925
H 30.9763 48.3914 57.17
H 33.2539 47.4301 57.5903
H 32.5748 47.7771 59.3184
C 46.3203 21.488 54.934
O 45.8214 22.3836 55.5625
C 46.1447 21.4341 53.4283
C 46.9356 20.375 52.8872
C 46.8808 20.0639 51.5125
C 46.0799 20.8029 50.6226
C 45.2625 21.7976 51.1409
C 45.3288 22.1326 52.4942
C 44.4089 23.1736 53.0655
C 47.2351 24.365 52.5565
C 48.0634 24.0248 51.5125
C 49.4116 23.3884 51.9222
C 50.2664 24.4522 52.6062
C 47.6808 23.9434 50.0881
C 48.268 23.5552 48.8903
S 47.2822 23.4463 47.4434
C 45.8628 24.0996 48.5246
C 44.5076 24.2956 48.1935
C 43.7988 24.2168 46.8317
C 43.6404 24.8146 49.1833
C 44.0762 25.2102 50.4625
C 43.094 26.121 51.2278
C 45.3815 24.8227 50.948
C 46.1914 24.3074 49.88
C 45.9998 25.0681 52.2759
C 44.9389 24.68 53.3316
C 46.3129 26.5208 52.5173
H 47.016 20.782 55.5291
H 47.5401 19.7258 53.5633
H 47.3309 19.1439 51.1492
H 46.1125 20.568 49.5681
H 44.5596 22.3272 50.5451
H 43.5759 23.3067 52.3978
H 43.9884 22.7454 53.9796
H 47.5037 24.1447 53.5856
H 49.8088 22.9996 50.944
H 49.288 22.4481 52.5433
H 50.3553 25.3067 51.8972
H 51.2288 24.0187 52.9537
H 49.6782 24.6877 53.5233
H 49.3455 23.4771 48.837
H 43.1564 25.1231 46.745
H 43.1454 23.357 46.8115
H 44.5407 24.0123 46.0291
H 42.5845 25.0294 48.9929
H 42.7129 26.8827 50.549
H 43.5167 26.612 52.1753
H 42.2059 25.4915 51.541
H 45.3385 24.6506 54.321
H 44.1235 25.3963 53.4367
H 47.1325 26.9428 51.8724
H 46.6185 26.7224 53.5412
H 45.39 27.1076 52.2535
C 53.3949 67.9842 24.1207
C 53.3444 67.6909 22.7761
C 54.5307 67.6212 22.0014
C 55.7384 67.9084 22.6516
C 55.7908 68.1965 24.0297
C 54.6056 68.2598 24.7891
C 58.2763 65.5739 24.6067
C 57.3495 65.6146 25.6596
C 56.0418 65.2242 25.4055
C 55.081 65.2972 26.5615
O 55.5564 65.615 27.7048
C 54.5363 65.645 28.8757
C 53.7652 64.8776 26.2737
C 53.2848 64.6204 24.9502
C 51.9519 64.2172 24.6284
C 51.4335 64.0534 23.3408
C 52.3384 64.1632 22.2552
C 53.7283 64.4858 22.4469
C 54.6926 64.8358 21.3541
C 56.0202 64.9852 21.6015
C 56.5481 65.0418 22.9193
C 57.8881 65.2703 23.2959
C 59.0738 65.3844 22.284
C 55.598 64.9429 24.0514
C 54.2231 64.6282 23.7958
C 53.9999 65.0076 20.0551
C 53.4422 66.4494 19.9269
C 54.5195 67.4742 20.4806
O 52.8612 64.0314 19.8602
C 51.8453 63.976 20.8483
H 52.5012 67.709 24.7251
H 52.3961 67.4726 22.3132
H 56.7383 67.9005 22.1715
H 56.7464 68.2285 24.5288
H 54.5773 68.3693 25.8733
H 59.3104 65.848 24.8792
H 57.7614 65.8762 26.6479
H 53.9388 66.5391 28.6284
H 53.9469 64.7155 28.8974
H 55.1369 65.7581 29.7578
H 53.1174 64.8025 27.0875
H 51.2211 64.1029 25.4196
H 50.3716 63.7269 23.1241
H 56.7131 65.1713 20.789
H 59.9811 64.9206 22.8038
H 59.2735 66.4622 22.1585
H 58.8014 64.9641 21.2998
H 54.6701 64.7782 19.1784
H 52.5127 66.6215 20.5637
H 53.1533 66.7408 18.9023
H 54.2477 68.4475 19.9865
H 55.5286 67.2311 20.0537
H 51.2259 63.0538 20.8087
H 51.1535 64.752 20.5512
C 47.662 17.844 34.3717
C 47.1093 18.4126 33.2181
C 47.8192 19.3807 32.4727
C 49.1436 19.7325 32.7818
C 49.6819 19.1661 33.9339
C 48.9681 18.2569 34.6973
C 56.1797 19.7109 32.6716
O 55.1856 18.841 33.149
C 53.9813 18.6998 32.5975
C 53.2761 17.4737 32.8317
C 51.9863 17.2078 32.2671
C 51.357 18.1704 31.5197
C 52.1613 19.305 31.2796
C 51.5851 20.5343 30.5522
C 52.5911 21.503 30.6504
N 53.7055 20.988 31.2305
C 53.4246 19.626 31.7044
C 52.2238 22.8922 30.1691
C 51.1283 22.7491 29.0475
C 49.8488 21.9425 29.3594
C 50.2396 20.5492 29.9936
C 49.4024 19.455 30.2579
C 47.9356 19.4231 29.9792
C 47.1701 20.0068 31.2534
C 50.0124 18.1328 30.7076
C 50.3338 17.4717 29.3095
C 51.1827 15.896 32.483
C 52.0691 14.7762 32.9792
C 53.5064 15.0504 32.779
C 53.9634 16.3091 33.5487
H 47.1253 17.15 34.9786
H 46.189 18.0178 32.7934
H 49.7017 20.3753 32.1349
H 50.6918 19.4525 34.2543
H 49.4933 17.7546 35.5523
H 57.1334 19.4289 33.2222
H 56.2764 19.5886 31.5854
H 55.9262 20.7368 33.0198
H 54.509 21.6678 31.4631
H 51.9176 23.602 30.968
H 53.1453 23.3688 29.8024
H 51.6429 22.2717 28.1938
H 50.8035 23.7317 28.8117
H 49.3052 21.7328 28.4316
H 49.1979 22.4856 30.0593
H 47.6254 18.4418 29.7476
H 47.6581 20.0709 29.1306
H 46.1174 19.858 31.2601
H 47.2628 21.1471 31.2764
H 49.3266 17.4326 31.2626
H 51.1184 18.068 28.729
H 50.8087 16.4805 29.4193
H 49.3765 17.2504 28.7657
H 50.7846 15.6534 31.4774
H 50.2891 15.9709 33.1891
H 51.8292 13.8197 32.5242
H 51.8689 14.5853 34.0626
H 54.0754 14.1781 33.0346
H 53.638 15.1623 31.6178
H 55.0813 16.435 33.6319
H 53.6425 16.2992 34.5483
C 33.0583 57.5302 52.1721
C 32.3217 56.705 53.065
C 31.209 57.5375 53.6515
N 32.6138 55.4744 53.4722
C 33.6537 54.9307 53.023
O 34.1687 53.6819 53.1623
C 35.1273 53.4292 52.1927
O 35.6473 52.3122 51.9173
C 35.2519 51.1557 52.9466
C 35.3822 54.5656 51.4742
C 34.4735 55.5947 52.1031
C 34.2277 56.9246 51.6265
C 35.2039 57.4632 50.5671
C 36.1005 58.4445 51.2824
C 36.071 56.3782 49.9128
C 37.01 56.8586 48.8181
C 36.1428 57.2674 47.6201
C 36.0764 55.048 50.2573
C 36.7238 53.9383 49.42
C 38.0258 53.5717 50.1966
C 28.3951 57.8808 49.4466
C 29.0244 58.9858 48.9421
C 29.8563 59.7636 49.8082
O 30.3414 60.9184 49.4555
C 30.045 61.5636 48.1336
C 30.1626 59.2948 51.0912
C 29.5621 58.1252 51.5861
C 29.7458 57.5697 52.9988
C 28.6561 57.4104 50.7496
H 32.933 58.5927 52.0689
H 31.1555 57.2016 54.7307
H 31.5758 58.6009 53.713
H 34.1407 51.012 52.9741
H 35.6971 50.1921 52.5892
H 35.4081 51.4812 53.9498
H 34.677 58.0565 49.7872
H 36.2947 59.4 50.6245
H 37.1131 58.003 51.4193
H 35.6526 58.5302 52.2985
H 37.7499 56.0247 48.6195
H 37.5552 57.7429 49.1649
H 35.5895 56.3467 47.3198
H 35.4517 58.1348 47.8433
H 36.7436 57.5433 46.7676
H 36.9496 54.2688 48.3459
H 36.0699 53.0382 49.2433
H 37.684 53.2688 51.214
H 38.7132 54.4107 50.2635
H 38.573 52.6739 49.8317
H 27.7291 57.3471 48.7337
H 28.7093 59.3206 47.9272
H 28.9344 61.5403 47.8746
H 30.587 60.8884 47.3587
H 30.5701 62.5403 48.2314
H 30.8326 59.8646 51.7326
H 29.3298 56.5749 52.9837
H 29.0816 58.1294 53.6589
H 28.1258 56.4916 51.0851
S 52.3623 44.1233 8.9829
C 50.9835 45.2627 9.94988
C 49.9761 45.669 8.91875
C 48.7723 45.0174 8.82591
C 48.3245 44.0334 9.79853
C 47.0921 43.3141 9.68366
C 46.1335 43.9086 8.63502
C 46.8628 42.2365 10.5845
C 45.653 41.3852 10.2246
O 44.8467 41.6104 9.37017
C 47.5673 42.0368 11.8161
C 47.1606 41.0632 12.8775
O 46.0732 40.4308 12.6605
C 45.4544 39.4254 13.7639
C 47.9763 40.8775 13.9751
C 49.2224 41.5934 14.0921
C 50.0191 41.4028 15.2787
C 51.3242 41.8653 15.2625
C 51.8284 42.6997 14.2147
C 50.8609 43.2203 13.263
C 51.2895 44.1496 12.2061
C 50.4745 44.3657 11.0833
C 49.1546 43.764 10.9564
C 48.7288 42.8234 11.9672
C 49.5734 42.5841 13.0908
C 52.637 44.8678 12.3944
O 53.3125 44.4761 13.5229
C 53.2613 43.1394 14.0262
H 53.0071 45.3327 8.6448
H 51.5702 46.1333 10.2993
H 50.2624 46.384 8.17302
H 48.1138 45.3778 8.01342
H 45.1399 43.9753 9.133
H 46.1778 43.2304 7.78251
H 46.4163 44.913 8.36683
H 45.694 40.3749 10.7121
H 44.459 39.0276 13.4784
H 45.429 40.0422 14.7069
H 46.1688 38.5808 13.7368
H 47.7163 40.2127 14.8051
H 49.6568 40.9125 16.2053
H 52.0219 41.6518 16.102
H 53.3176 44.8275 11.5159
H 52.4928 45.9983 12.5453
H 53.7701 43.1502 14.9947
H 53.7629 42.4614 13.3075
C 46.0172 49.0326 66.159
C 44.8294 48.2633 65.9911
O 44.7818 47.3229 65.1089
C 45.8142 46.9257 64.0832
C 43.712 48.5275 66.8329
C 42.4097 47.7229 66.6192
C 43.7609 49.4935 67.8293
C 45.0042 50.1362 68.0627
C 45.1746 51.1732 69.192
C 46.1305 49.9685 67.2353
O 47.2254 50.6218 67.4748
C 48.5923 50.4707 66.7956
C 43.2542 44.9881 61.2641
O 42.8576 43.9193 61.657
C 44.3163 45.2604 60.1697
C 45.4725 46.0345 60.4702
O 45.7394 46.5629 61.6049
C 45.081 46.3137 62.9654
C 46.3582 46.489 59.4304
C 46.1178 46.1098 58.104
C 44.9876 45.2429 57.8285
C 44.6127 44.8281 56.4414
O 45.3493 44.9737 55.4903
C 44.1605 44.6887 58.8772
C 42.9192 43.779 58.7087
C 47.0127 46.7884 57.05
O 47.527 48.0496 57.2211
C 47.4821 48.4937 58.5339
C 46.0813 49.1271 58.6932
C 48.5685 49.6014 58.6665
C 49.9086 49.0236 58.1422
C 47.5421 47.3948 59.6897
H 46.8488 48.8404 65.4784
H 46.4965 46.2457 64.6331
H 46.3565 47.8462 63.7682
H 42.6155 46.6932 67.0848
H 41.4508 48.1973 67.0508
H 42.2409 47.4935 65.5455
H 42.886 49.7073 68.4673
H 44.6273 50.823 70.1258
H 46.2257 51.3071 69.3922
H 44.7341 52.1354 68.7632
H 49.1474 51.2921 67.2354
H 48.3937 50.7091 65.726
H 48.9716 49.4465 67.0455
H 42.7318 45.8245 61.8016
H 44.9652 45.1686 63.0532
H 44.0448 46.7033 62.8407
H 43.5896 44.5429 56.2722
H 42.0339 44.4713 58.6303
H 43.0562 43.1894 57.7536
H 42.8003 42.9828 59.577
H 47.924 46.2032 57.0149
H 46.4416 46.7872 56.099
H 45.8688 49.4749 59.7426
H 45.2893 48.3727 58.4113
H 45.9234 50.0175 58.0579
H 48.7032 49.9567 59.7653
H 48.3217 50.4916 57.952
H 49.7277 48.4372 57.1631
H 50.7261 49.8739 57.9799
H 50.3685 48.3169 58.8895
H 47.5555 47.7174 60.7992
H 48.5089 46.8447 59.6156
C 63.9954 13.3434 3.47376
C 65.3352 12.8619 3.633
C 65.5362 11.4491 3.45565
C 64.4606 10.5193 3.13062
C 63.112 10.9961 3.14371
C 62.9795 12.4688 3.12188
C 61.6375 13.1053 2.70596
C 62.1424 9.99255 3.54028
C 62.4419 8.81808 4.23357
C 61.3716 8.10359 5.0001
O 60.2001 8.14228 4.52735
C 58.7838 7.68283 5.12945
C 61.7818 7.65638 6.2854
C 60.8572 7.17055 7.40276
C 63.1325 7.71092 6.68454
C 63.8511 7.69668 7.94982
N 65.1473 7.86152 7.89702
C 65.4257 8.07856 6.54117
C 66.4691 8.7338 5.77462
C 67.7547 9.14322 6.28767
C 68.2675 10.338 5.79414
C 69.6879 10.6995 6.26587
C 67.6439 11.1825 4.82484
C 66.565 10.6004 4.13247
C 66.133 9.25047 4.43126
C 64.8683 9.21518 3.70658
C 63.8394 8.43536 4.42108
C 64.2372 7.97633 5.74232
C 67.8555 12.6254 4.38046
C 68.19 12.55 2.84391
C 69.3604 11.5555 2.56524
C 66.4449 13.4288 4.53932
C 66.6429 14.9495 4.30598